nqpoint: 1      
natom:   2      
reciprocal_lattice:
- [  -0.18294914,   0.18294914,   0.18294914 ] # a*
- [   0.18294914,  -0.18294914,   0.18294914 ] # b*
- [   0.18294914,   0.18294914,  -0.18294914 ] # c*
phonon:
- q-position: [   -0.0750000,    0.0000000,   -0.0750000 ]
  band:
  - # 1
    frequency:    0.9043096251
    eigenvector:
    - # atom 1
      - [ -0.66837904071831,  0.00000000000000 ]
      - [  0.00000000000000,  0.00000000000000 ]
      - [  0.17287343947579,  0.15291903691914 ]
    - # atom 2
      - [ -0.68403539744871,  0.02690968675263 ]
      - [  0.00000000000000,  0.00000000000000 ]
      - [  0.17076619933425,  0.04701434845876 ]
  - # 2
    frequency:    0.9043096251
    eigenvector:
    - # atom 1
      - [  0.23080177193528,  0.00000000000000 ]
      - [  0.00000000000001,  0.00000000000000 ]
      - [  0.50062433521915,  0.44283836448293 ]
    - # atom 2
      - [  0.15905566410949,  0.07792778394613 ]
      - [  0.00000000000001,  0.00000000000000 ]
      - [  0.49452197676429,  0.47336726830345 ]
  - # 3
    frequency:    2.1538635221
    eigenvector:
    - # atom 1
      - [  0.00000000000000,  0.00000000000000 ]
      - [ -0.70336082101311,  0.07268806961094 ]
      - [  0.00000000000001,  0.00000000000000 ]
    - # atom 2
      - [  0.00000000000000,  0.00000000000000 ]
      - [ -0.70336082101311,  0.07268806961094 ]
      - [  0.00000000000001,  0.00000000000000 ]
  - # 4
    frequency:   14.9706475336
    eigenvector:
    - # atom 1
      - [  0.12359068240855,  0.00000000000000 ]
      - [  0.00000000000007,  0.00000000000001 ]
      - [  0.20666109921728,  0.66484323963781 ]
    - # atom 2
      - [ -0.01859387884872, -0.03216911435762 ]
      - [ -0.00000000000007, -0.00000000000001 ]
      - [ -0.20414200452415, -0.67597740919328 ]
  - # 5
    frequency:   14.9706475336
    eigenvector:
    - # atom 1
      - [ -0.69622219385896,  0.00000000000000 ]
      - [  0.00000000000002,  0.00000000000000 ]
      - [  0.03668568239400,  0.11802041130880 ]
    - # atom 2
      - [  0.70610679469520, -0.00571053728394 ]
      - [ -0.00000000000002, -0.00000000000000 ]
      - [ -0.03623850240617, -0.00820702093042 ]
  - # 6
    frequency:   15.0073213673
    eigenvector:
    - # atom 1
      - [  0.00000000000000,  0.00000000000000 ]
      - [  0.70484252744916, -0.05654212145900 ]
      - [ -0.00000000000004, -0.00000000000007 ]
    - # atom 2
      - [ -0.00000000000001,  0.00000000000001 ]
      - [ -0.70484252744916,  0.05654212145900 ]
      - [  0.00000000000004,  0.00000000000006 ]

