16   
1    

1    
  0.0000000000000000   0.0141421356237310   0.0141421356237310
  -0.0000665606   -0.0038340887   -0.0038340887
   0.0000029594    0.0002742313    0.0002742313
   0.0001451894   -0.0002472487    0.0001343113
  -0.0001475406    0.0001219713   -0.0002517687
   0.0001451894    0.0001343113   -0.0002472487
  -0.0001475406   -0.0002517687    0.0001219713
  -0.0000027206   -0.0000184387   -0.0000184387
   0.0000056294    0.0000378213    0.0000378213
   0.0012923294    0.0016402612    0.0016402612
  -0.0012361006    0.0015884512    0.0015884512
   0.0000003794    0.0003463213    0.0003549113
   0.0000027594   -0.0000742387   -0.0000718387
   0.0000003794    0.0003549113    0.0003463213
   0.0000027594   -0.0000718387   -0.0000742387
  -0.0000706506    0.0000031813    0.0000031813
   0.0000735394   -0.0000038387   -0.0000038387