16   
1    

1    
	0.0	0.00748369290296	0.00748369290296
	-0.00171134244871	-0.0985784194315	-0.0985784194315
	7.60892606542e-05	0.00705077274625	0.00705077274625
	0.00373297090654	-0.00635702195739	0.00345328360969
	-0.00379342271085	0.00313600933907	-0.00647323587175
	0.00373297090654	0.00345328360969	-0.00635702195739
	-0.00379342271085	-0.00647323587175	0.00313600933907
	-6.99494635858e-05	-0.000474078208564	-0.000474078208564
	0.000144737745464	0.000972425070616	0.000972425070616
	0.0332271367736	0.0421728262444	0.0421728262444
	-0.0317814356789	0.0408407371066	0.0408407371066
	9.7547697142e-06	0.00890428183612	0.00912513969549
	7.09470520542e-05	-0.00190875440796	-0.00184704790476
	9.7547697142e-06	0.00912513969549	0.00890428183612
	7.09470520542e-05	-0.00184704790476	-0.00190875440796
	-0.00181650061458	8.17945410959e-05	8.17945410959e-05
	0.00189077467559	-9.86969807641e-05	-9.86969807641e-05
