calculator: qe
nqpoint: 459    
npath: 9      
segment_nqpoint:
- 51
- 51
- 51
- 51
- 51
- 51
- 51
- 51
- 51
reciprocal_lattice:
- [  -0.09680961,   0.09680961,   0.09680961 ] # a*
- [   0.09680961,  -0.09680961,   0.09680961 ] # b*
- [   0.09680961,   0.09680961,  -0.09680961 ] # c*
natom: 2      
lattice:
- [     0.000000000000000,     5.164776410478318,     5.164776410478318 ] # a
- [     5.164776410478318,     0.000000000000000,     5.164776410478318 ] # b
- [     5.164776410478318,     5.164776410478318,     0.000000000000000 ] # c
points:
- symbol: Si # 1
  coordinates: [  0.875000000000000,  0.875000000000000,  0.875000000000000 ]
  mass: 28.085500
- symbol: Si # 2
  coordinates: [  0.125000000000000,  0.125000000000000,  0.125000000000000 ]
  mass: 28.085500
supercell_matrix:
- [   -4,    4,    4 ]
- [    4,   -4,    4 ]
- [    4,    4,   -4 ]

phonon:
- q-position: [    0.0000000,    0.0000000,    0.0000000 ]
  distance:    0.0000000
  band:
  - # 1
    frequency:    0.0041124340
  - # 2
    frequency:    0.0041124340
  - # 3
    frequency:    0.0041124340
  - # 4
    frequency:   15.0955319933
  - # 5
    frequency:   15.0955319933
  - # 6
    frequency:   15.0955319933

- q-position: [    0.0100000,    0.0000000,    0.0100000 ]
  distance:    0.0019362
  band:
  - # 1
    frequency:    0.1890762793
  - # 2
    frequency:    0.1890762793
  - # 3
    frequency:    0.3036547243
  - # 4
    frequency:   15.0926296100
  - # 5
    frequency:   15.0926296100
  - # 6
    frequency:   15.0946566011

- q-position: [    0.0200000,    0.0000000,    0.0200000 ]
  distance:    0.0038724
  band:
  - # 1
    frequency:    0.3778176468
  - # 2
    frequency:    0.3778176468
  - # 3
    frequency:    0.6070731808
  - # 4
    frequency:   15.0839423526
  - # 5
    frequency:   15.0839423526
  - # 6
    frequency:   15.0920279890

- q-position: [    0.0300000,    0.0000000,    0.0300000 ]
  distance:    0.0058086
  band:
  - # 1
    frequency:    0.5660366473
  - # 2
    frequency:    0.5660366473
  - # 3
    frequency:    0.9101123953
  - # 4
    frequency:   15.0695298302
  - # 5
    frequency:   15.0695298302
  - # 6
    frequency:   15.0876388663

- q-position: [    0.0400000,    0.0000000,    0.0400000 ]
  distance:    0.0077448
  band:
  - # 1
    frequency:    0.7534495124
  - # 2
    frequency:    0.7534495124
  - # 3
    frequency:    1.2125723318
  - # 4
    frequency:   15.0494911616
  - # 5
    frequency:   15.0494911616
  - # 6
    frequency:   15.0814771324

- q-position: [    0.0500000,    0.0000000,    0.0500000 ]
  distance:    0.0096810
  band:
  - # 1
    frequency:    0.9397767657
  - # 2
    frequency:    0.9397767657
  - # 3
    frequency:    1.5142599401
  - # 4
    frequency:   15.0239646233
  - # 5
    frequency:   15.0239646233
  - # 6
    frequency:   15.0735259517

- q-position: [    0.0600000,    0.0000000,    0.0600000 ]
  distance:    0.0116172
  band:
  - # 1
    frequency:    1.1247343852
  - # 2
    frequency:    1.1247343852
  - # 3
    frequency:    1.8149849757
  - # 4
    frequency:   14.9931271458
  - # 5
    frequency:   14.9931271458
  - # 6
    frequency:   15.0637638586

- q-position: [    0.0700000,    0.0000000,    0.0700000 ]
  distance:    0.0135533
  band:
  - # 1
    frequency:    1.3080314972
  - # 2
    frequency:    1.3080314972
  - # 3
    frequency:    2.1145597883
  - # 4
    frequency:   14.9571936411
  - # 5
    frequency:   14.9571936411
  - # 6
    frequency:   15.0521648883

- q-position: [    0.0800000,    0.0000000,    0.0800000 ]
  distance:    0.0154895
  band:
  - # 1
    frequency:    1.4893690506
  - # 2
    frequency:    1.4893690506
  - # 3
    frequency:    2.4127995950
  - # 4
    frequency:   14.9164161478
  - # 5
    frequency:   14.9164161478
  - # 6
    frequency:   15.0386987351

- q-position: [    0.0900000,    0.0000000,    0.0900000 ]
  distance:    0.0174257
  band:
  - # 1
    frequency:    1.6684388944
  - # 2
    frequency:    1.6684388944
  - # 3
    frequency:    2.7095228496
  - # 4
    frequency:   14.8710827681
  - # 5
    frequency:   14.8710827681
  - # 6
    frequency:   15.0233309342

- q-position: [    0.1000000,    0.0000000,    0.1000000 ]
  distance:    0.0193619
  band:
  - # 1
    frequency:    1.8449231789
  - # 2
    frequency:    1.8449231789
  - # 3
    frequency:    3.0045516289
  - # 4
    frequency:   14.8215163721
  - # 5
    frequency:   14.8215163721
  - # 6
    frequency:   15.0060230655

- q-position: [    0.1100000,    0.0000000,    0.1100000 ]
  distance:    0.0212981
  band:
  - # 1
    frequency:    2.0184940942
  - # 2
    frequency:    2.0184940942
  - # 3
    frequency:    3.2977120120
  - # 4
    frequency:   14.7680730360
  - # 5
    frequency:   14.7680730360
  - # 6
    frequency:   14.9867329776

- q-position: [    0.1200000,    0.0000000,    0.1200000 ]
  distance:    0.0232343
  band:
  - # 1
    frequency:    2.1888139874
  - # 2
    frequency:    2.1888139874
  - # 3
    frequency:    3.5888344451
  - # 4
    frequency:   14.7111401768
  - # 5
    frequency:   14.7111401768
  - # 6
    frequency:   14.9654150283

- q-position: [    0.1300000,    0.0000000,    0.1300000 ]
  distance:    0.0251705
  band:
  - # 1
    frequency:    2.3555359066
  - # 2
    frequency:    2.3555359066
  - # 3
    frequency:    3.8777540857
  - # 4
    frequency:   14.6511343423
  - # 5
    frequency:   14.6511343423
  - # 6
    frequency:   14.9420203402

- q-position: [    0.1400000,    0.0000000,    0.1400000 ]
  distance:    0.0271067
  band:
  - # 1
    frequency:    2.5183046281
  - # 2
    frequency:    2.5183046281
  - # 3
    frequency:    4.1643111249
  - # 4
    frequency:   14.5884986100
  - # 5
    frequency:   14.5884986100
  - # 6
    frequency:   14.9164970675

- q-position: [    0.1500000,    0.0000000,    0.1500000 ]
  distance:    0.0290429
  band:
  - # 1
    frequency:    2.6767582214
  - # 2
    frequency:    2.6767582214
  - # 3
    frequency:    4.4483510842
  - # 4
    frequency:   14.5236995457
  - # 5
    frequency:   14.5236995457
  - # 6
    frequency:   14.8887906719

- q-position: [    0.1600000,    0.0000000,    0.1600000 ]
  distance:    0.0309791
  band:
  - # 1
    frequency:    2.8305302090
  - # 2
    frequency:    2.8305302090
  - # 3
    frequency:    4.7297250871
  - # 4
    frequency:   14.4572236748
  - # 5
    frequency:   14.4572236748
  - # 6
    frequency:   14.8588442047

- q-position: [    0.1700000,    0.0000000,    0.1700000 ]
  distance:    0.0329153
  band:
  - # 1
    frequency:    2.9792523701
  - # 2
    frequency:    2.9792523701
  - # 3
    frequency:    5.0082901027
  - # 4
    frequency:   14.3895734180
  - # 5
    frequency:   14.3895734180
  - # 6
    frequency:   14.8265985914

- q-position: [    0.1800000,    0.0000000,    0.1800000 ]
  distance:    0.0348515
  band:
  - # 1
    frequency:    3.1225582307
  - # 2
    frequency:    3.1225582307
  - # 3
    frequency:    5.2839091616
  - # 4
    frequency:   14.3212624556
  - # 5
    frequency:   14.3212624556
  - # 6
    frequency:   14.7919929173

- q-position: [    0.1900000,    0.0000000,    0.1900000 ]
  distance:    0.0367877
  band:
  - # 1
    frequency:    3.2600872678
  - # 2
    frequency:    3.2600872678
  - # 3
    frequency:    5.5564515422
  - # 4
    frequency:   14.2528104928
  - # 5
    frequency:   14.2528104928
  - # 6
    frequency:   14.7549647103

- q-position: [    0.2000000,    0.0000000,    0.2000000 ]
  distance:    0.0387238
  band:
  - # 1
    frequency:    3.3914898304
  - # 2
    frequency:    3.3914898304
  - # 3
    frequency:    5.8257929275
  - # 4
    frequency:   14.1847374226
  - # 5
    frequency:   14.1847374226
  - # 6
    frequency:   14.7154502188

- q-position: [    0.2100000,    0.0000000,    0.2100000 ]
  distance:    0.0406600
  band:
  - # 1
    frequency:    3.5164327551
  - # 2
    frequency:    3.5164327551
  - # 3
    frequency:    6.0918155325
  - # 4
    frequency:   14.1175569074
  - # 5
    frequency:   14.1175569074
  - # 6
    frequency:   14.6733846831

- q-position: [    0.2200000,    0.0000000,    0.2200000 ]
  distance:    0.0425962
  band:
  - # 1
    frequency:    3.6346056123
  - # 2
    frequency:    3.6346056123
  - # 3
    frequency:    6.3544082014
  - # 4
    frequency:   14.0517694375
  - # 5
    frequency:   14.0517694375
  - # 6
    frequency:   14.6287025964

- q-position: [    0.2300000,    0.0000000,    0.2300000 ]
  distance:    0.0445324
  band:
  - # 1
    frequency:    3.7457274766
  - # 2
    frequency:    3.7457274766
  - # 3
    frequency:    6.6134664750
  - # 4
    frequency:   13.9878549686
  - # 5
    frequency:   13.9878549686
  - # 6
    frequency:   14.5813379551

- q-position: [    0.2400000,    0.0000000,    0.2400000 ]
  distance:    0.0464686
  band:
  - # 1
    frequency:    3.8495540611
  - # 2
    frequency:    3.8495540611
  - # 3
    frequency:    6.8688926285
  - # 4
    frequency:   13.9262652874
  - # 5
    frequency:   13.9262652874
  - # 6
    frequency:   14.5312244962

- q-position: [    0.2500000,    0.0000000,    0.2500000 ]
  distance:    0.0484048
  band:
  - # 1
    frequency:    3.9458850033
  - # 2
    frequency:    3.9458850033
  - # 3
    frequency:    7.1205956816
  - # 4
    frequency:   13.8674163073
  - # 5
    frequency:   13.8674163073
  - # 6
    frequency:   14.4782959195

- q-position: [    0.2600000,    0.0000000,    0.2600000 ]
  distance:    0.0503410
  band:
  - # 1
    frequency:    4.0345710382
  - # 2
    frequency:    4.0345710382
  - # 3
    frequency:    7.3684913793
  - # 4
    frequency:   13.8116805444
  - # 5
    frequency:   13.8116805444
  - # 6
    frequency:   14.4224860957

- q-position: [    0.2700000,    0.0000000,    0.2700000 ]
  distance:    0.0522772
  band:
  - # 1
    frequency:    4.1155207495
  - # 2
    frequency:    4.1155207495
  - # 3
    frequency:    7.6125021469
  - # 4
    frequency:   13.7593800651
  - # 5
    frequency:   13.7593800651
  - # 6
    frequency:   14.3637292566

- q-position: [    0.2800000,    0.0000000,    0.2800000 ]
  distance:    0.0542134
  band:
  - # 1
    frequency:    4.1887065605
  - # 2
    frequency:    4.1887065605
  - # 3
    frequency:    7.8525570180
  - # 4
    frequency:   13.7107802225
  - # 5
    frequency:   13.7107802225
  - # 6
    frequency:   14.3019601697

- q-position: [    0.2900000,    0.0000000,    0.2900000 ]
  distance:    0.0561496
  band:
  - # 1
    frequency:    4.2541696185
  - # 2
    frequency:    4.2541696185
  - # 3
    frequency:    8.0885915399
  - # 4
    frequency:   13.6660845041
  - # 5
    frequency:   13.6660845041
  - # 6
    frequency:   14.2371142946

- q-position: [    0.3000000,    0.0000000,    0.3000000 ]
  distance:    0.0580858
  band:
  - # 1
    frequency:    4.3120232441
  - # 2
    frequency:    4.3120232441
  - # 3
    frequency:    8.3205476544
  - # 4
    frequency:   13.6254307920
  - # 5
    frequency:   13.6254307920
  - # 6
    frequency:   14.1691279236

- q-position: [    0.3100000,    0.0000000,    0.3100000 ]
  distance:    0.0600220
  band:
  - # 1
    frequency:    4.3624546593
  - # 2
    frequency:    4.3624546593
  - # 3
    frequency:    8.5483735589
  - # 4
    frequency:   13.5888892890
  - # 5
    frequency:   13.5888892890
  - # 6
    frequency:   14.0979383043

- q-position: [    0.3200000,    0.0000000,    0.3200000 ]
  distance:    0.0619582
  band:
  - # 1
    frequency:    4.4057247841
  - # 2
    frequency:    4.4057247841
  - # 3
    frequency:    8.7720235476
  - # 4
    frequency:   13.5564622879
  - # 5
    frequency:   13.5564622879
  - # 6
    frequency:   14.0234837470

- q-position: [    0.3300000,    0.0000000,    0.3300000 ]
  distance:    0.0638943
  band:
  - # 1
    frequency:    4.4421659792
  - # 2
    frequency:    4.4421659792
  - # 3
    frequency:    8.9914578360
  - # 4
    frequency:   13.5280858692
  - # 5
    frequency:   13.5280858692
  - # 6
    frequency:   13.9457037161

- q-position: [    0.3400000,    0.0000000,    0.3400000 ]
  distance:    0.0658305
  band:
  - # 1
    frequency:    4.4721777211
  - # 2
    frequency:    4.4721777211
  - # 3
    frequency:    9.2066423697
  - # 4
    frequency:   13.5036335008
  - # 5
    frequency:   13.5036335008
  - # 6
    frequency:   13.8645389081

- q-position: [    0.3500000,    0.0000000,    0.3500000 ]
  distance:    0.0677667
  band:
  - # 1
    frequency:    4.4962203009
  - # 2
    frequency:    4.4962203009
  - # 3
    frequency:    9.4175486210
  - # 4
    frequency:   13.4829214111
  - # 5
    frequency:   13.4829214111
  - # 6
    frequency:   13.7799313159

- q-position: [    0.3600000,    0.0000000,    0.3600000 ]
  distance:    0.0697029
  band:
  - # 1
    frequency:    4.5148067366
  - # 2
    frequency:    4.5148067366
  - # 3
    frequency:    9.6241533743
  - # 4
    frequency:   13.4657155068
  - # 5
    frequency:   13.4657155068
  - # 6
    frequency:   13.6918242821

- q-position: [    0.3700000,    0.0000000,    0.3700000 ]
  distance:    0.0716391
  band:
  - # 1
    frequency:    4.5284931684
  - # 2
    frequency:    4.5284931684
  - # 3
    frequency:    9.8264385037
  - # 4
    frequency:   13.4517395349
  - # 5
    frequency:   13.4517395349
  - # 6
    frequency:   13.6001625428

- q-position: [    0.3800000,    0.0000000,    0.3800000 ]
  distance:    0.0735753
  band:
  - # 1
    frequency:    4.5378680594
  - # 2
    frequency:    4.5378680594
  - # 3
    frequency:   10.0243907434
  - # 4
    frequency:   13.4406841367
  - # 5
    frequency:   13.4406841367
  - # 6
    frequency:   13.5048922623

- q-position: [    0.3900000,    0.0000000,    0.3900000 ]
  distance:    0.0755115
  band:
  - # 1
    frequency:    4.5435405538
  - # 2
    frequency:    4.5435405538
  - # 3
    frequency:   10.2180014560
  - # 4
    frequency:   13.4059610631
  - # 5
    frequency:   13.4322164268
  - # 6
    frequency:   13.4322164268

- q-position: [    0.4000000,    0.0000000,    0.4000000 ]
  distance:    0.0774477
  band:
  - # 1
    frequency:    4.5461283483
  - # 2
    frequency:    4.5461283483
  - # 3
    frequency:   10.4072663975
  - # 4
    frequency:   13.3033180505
  - # 5
    frequency:   13.4259897390
  - # 6
    frequency:   13.4259897390

- q-position: [    0.4100000,    0.0000000,    0.4100000 ]
  distance:    0.0793839
  band:
  - # 1
    frequency:    4.5462454118
  - # 2
    frequency:    4.5462454118
  - # 3
    frequency:   10.5921854839
  - # 4
    frequency:   13.1969138355
  - # 5
    frequency:   13.4216532160
  - # 6
    frequency:   13.4216532160

- q-position: [    0.4200000,    0.0000000,    0.4200000 ]
  distance:    0.0813201
  band:
  - # 1
    frequency:    4.5444898628
  - # 2
    frequency:    4.5444898628
  - # 3
    frequency:   10.7727625606
  - # 4
    frequency:   13.0867005573
  - # 5
    frequency:   13.4188609685
  - # 6
    frequency:   13.4188609685

- q-position: [    0.4300000,    0.0000000,    0.4300000 ]
  distance:    0.0832563
  band:
  - # 1
    frequency:    4.5414322716
  - # 2
    frequency:    4.5414322716
  - # 3
    frequency:   10.9490051758
  - # 4
    frequency:   12.9726319077
  - # 5
    frequency:   13.4172805897
  - # 6
    frequency:   13.4172805897

- q-position: [    0.4400000,    0.0000000,    0.4400000 ]
  distance:    0.0851925
  band:
  - # 1
    frequency:    4.5376046210
  - # 2
    frequency:    4.5376046210
  - # 3
    frequency:   11.1209243609
  - # 4
    frequency:   12.8546631587
  - # 5
    frequency:   13.4166008711
  - # 6
    frequency:   13.4166008711

- q-position: [    0.4500000,    0.0000000,    0.4500000 ]
  distance:    0.0871287
  band:
  - # 1
    frequency:    4.5334901196
  - # 2
    frequency:    4.5334901196
  - # 3
    frequency:   11.2885344191
  - # 4
    frequency:   12.7327511959
  - # 5
    frequency:   13.4165386219
  - # 6
    frequency:   13.4165386219

- q-position: [    0.4600000,    0.0000000,    0.4600000 ]
  distance:    0.0890648
  band:
  - # 1
    frequency:    4.5295140351
  - # 2
    frequency:    4.5295140351
  - # 3
    frequency:   11.4518527235
  - # 4
    frequency:   12.6068545585
  - # 5
    frequency:   13.4168445403
  - # 6
    frequency:   13.4168445403

- q-position: [    0.4700000,    0.0000000,    0.4700000 ]
  distance:    0.0910010
  band:
  - # 1
    frequency:    4.5260356888
  - # 2
    frequency:    4.5260356888
  - # 3
    frequency:   11.6108995264
  - # 4
    frequency:   12.4769334889
  - # 5
    frequency:   13.4173081237
  - # 6
    frequency:   13.4173081237

- q-position: [    0.4800000,    0.0000000,    0.4800000 ]
  distance:    0.0929372
  band:
  - # 1
    frequency:    4.5233417317
  - # 2
    frequency:    4.5233417317
  - # 3
    frequency:   11.7656977804
  - # 4
    frequency:   12.3429499914
  - # 5
    frequency:   13.4177616284
  - # 6
    frequency:   13.4177616284

- q-position: [    0.4900000,    0.0000000,    0.4900000 ]
  distance:    0.0948734
  band:
  - # 1
    frequency:    4.5216408035
  - # 2
    frequency:    4.5216408035
  - # 3
    frequency:   11.9162729734
  - # 4
    frequency:   12.2048679030
  - # 5
    frequency:   13.4180831041
  - # 6
    frequency:   13.4180831041

- q-position: [    0.5000000,    0.0000000,    0.5000000 ]
  distance:    0.0968096
  band:
  - # 1
    frequency:    4.5210596564
  - # 2
    frequency:    4.5210596564
  - # 3
    frequency:   12.0626529758
  - # 4
    frequency:   12.0626529758
  - # 5
    frequency:   13.4181985337
  - # 6
    frequency:   13.4181985337

- q-position: [    0.5000000,    0.0000000,    0.5000000 ]
  distance:    0.0968096
  band:
  - # 1
    frequency:    4.5210596564
  - # 2
    frequency:    4.5210596564
  - # 3
    frequency:   12.0626529758
  - # 4
    frequency:   12.0626529758
  - # 5
    frequency:   13.4181985337
  - # 6
    frequency:   13.4181985337

- q-position: [    0.5050000,    0.0050000,    0.5000000 ]
  distance:    0.0977777
  band:
  - # 1
    frequency:    4.5224221148
  - # 2
    frequency:    4.5224221148
  - # 3
    frequency:   12.0610227215
  - # 4
    frequency:   12.0610227215
  - # 5
    frequency:   13.4186380377
  - # 6
    frequency:   13.4186380377

- q-position: [    0.5100000,    0.0100000,    0.5000000 ]
  distance:    0.0987458
  band:
  - # 1
    frequency:    4.5265052956
  - # 2
    frequency:    4.5265052956
  - # 3
    frequency:   12.0561430329
  - # 4
    frequency:   12.0561430329
  - # 5
    frequency:   13.4199481476
  - # 6
    frequency:   13.4199481476

- q-position: [    0.5150000,    0.0150000,    0.5000000 ]
  distance:    0.0997139
  band:
  - # 1
    frequency:    4.5332966379
  - # 2
    frequency:    4.5332966379
  - # 3
    frequency:   12.0480467161
  - # 4
    frequency:   12.0480467161
  - # 5
    frequency:   13.4221040763
  - # 6
    frequency:   13.4221040763

- q-position: [    0.5200000,    0.0200000,    0.5000000 ]
  distance:    0.1006820
  band:
  - # 1
    frequency:    4.5427752834
  - # 2
    frequency:    4.5427752834
  - # 3
    frequency:   12.0367871004
  - # 4
    frequency:   12.0367871004
  - # 5
    frequency:   13.4250658659
  - # 6
    frequency:   13.4250658659

- q-position: [    0.5250000,    0.0250000,    0.5000000 ]
  distance:    0.1016501
  band:
  - # 1
    frequency:    4.5549121874
  - # 2
    frequency:    4.5549121874
  - # 3
    frequency:   12.0224361627
  - # 4
    frequency:   12.0224361627
  - # 5
    frequency:   13.4287802717
  - # 6
    frequency:   13.4287802717

- q-position: [    0.5300000,    0.0300000,    0.5000000 ]
  distance:    0.1026182
  band:
  - # 1
    frequency:    4.5696702701
  - # 2
    frequency:    4.5696702701
  - # 3
    frequency:   12.0050821676
  - # 4
    frequency:   12.0050821676
  - # 5
    frequency:   13.4331831368
  - # 6
    frequency:   13.4331831368

- q-position: [    0.5350000,    0.0350000,    0.5000000 ]
  distance:    0.1035863
  band:
  - # 1
    frequency:    4.5870046031
  - # 2
    frequency:    4.5870046031
  - # 3
    frequency:   11.9848270316
  - # 4
    frequency:   11.9848270316
  - # 5
    frequency:   13.4382020447
  - # 6
    frequency:   13.4382020447

- q-position: [    0.5400000,    0.0400000,    0.5000000 ]
  distance:    0.1045544
  band:
  - # 1
    frequency:    4.6068626245
  - # 2
    frequency:    4.6068626245
  - # 3
    frequency:   11.9617836222
  - # 4
    frequency:   11.9617836222
  - # 5
    frequency:   13.4437590441
  - # 6
    frequency:   13.4437590441

- q-position: [    0.5450000,    0.0450000,    0.5000000 ]
  distance:    0.1055225
  band:
  - # 1
    frequency:    4.6291843775
  - # 2
    frequency:    4.6291843775
  - # 3
    frequency:   11.9360731705
  - # 4
    frequency:   11.9360731705
  - # 5
    frequency:   13.4497732642
  - # 6
    frequency:   13.4497732642

- q-position: [    0.5500000,    0.0500000,    0.5000000 ]
  distance:    0.1064906
  band:
  - # 1
    frequency:    4.6539027639
  - # 2
    frequency:    4.6539027639
  - # 3
    frequency:   11.9078229387
  - # 4
    frequency:   11.9078229387
  - # 5
    frequency:   13.4561632822
  - # 6
    frequency:   13.4561632822

- q-position: [    0.5550000,    0.0550000,    0.5000000 ]
  distance:    0.1074587
  band:
  - # 1
    frequency:    4.6809438063
  - # 2
    frequency:    4.6809438063
  - # 3
    frequency:   11.8771642303
  - # 4
    frequency:   11.8771642303
  - # 5
    frequency:   13.4628491553
  - # 6
    frequency:   13.4628491553

- q-position: [    0.5600000,    0.0600000,    0.5000000 ]
  distance:    0.1084268
  band:
  - # 1
    frequency:    4.7102269107
  - # 2
    frequency:    4.7102269107
  - # 3
    frequency:   11.8442307882
  - # 4
    frequency:   11.8442307882
  - # 5
    frequency:   13.4697540723
  - # 6
    frequency:   13.4697540723

- q-position: [    0.5650000,    0.0650000,    0.5000000 ]
  distance:    0.1093949
  band:
  - # 1
    frequency:    4.7416651217
  - # 2
    frequency:    4.7416651217
  - # 3
    frequency:   11.8091575870
  - # 4
    frequency:   11.8091575870
  - # 5
    frequency:   13.4768056198
  - # 6
    frequency:   13.4768056198

- q-position: [    0.5700000,    0.0700000,    0.5000000 ]
  distance:    0.1103630
  band:
  - # 1
    frequency:    4.7751653647
  - # 2
    frequency:    4.7751653647
  - # 3
    frequency:   11.7720799968
  - # 4
    frequency:   11.7720799968
  - # 5
    frequency:   13.4839366876
  - # 6
    frequency:   13.4839366876

- q-position: [    0.5750000,    0.0750000,    0.5000000 ]
  distance:    0.1113311
  band:
  - # 1
    frequency:    4.8106286659
  - # 2
    frequency:    4.8106286659
  - # 3
    frequency:   11.7331332790
  - # 4
    frequency:   11.7331332790
  - # 5
    frequency:   13.4910860515
  - # 6
    frequency:   13.4910860515

- q-position: [    0.5800000,    0.0800000,    0.5000000 ]
  distance:    0.1122991
  band:
  - # 1
    frequency:    4.8479503470
  - # 2
    frequency:    4.8479503470
  - # 3
    frequency:   11.6924523667
  - # 4
    frequency:   11.6924523667
  - # 5
    frequency:   13.4981986849
  - # 6
    frequency:   13.4981986849

- q-position: [    0.5850000,    0.0850000,    0.5000000 ]
  distance:    0.1132672
  band:
  - # 1
    frequency:    4.8870201865
  - # 2
    frequency:    4.8870201865
  - # 3
    frequency:   11.6501718778
  - # 4
    frequency:   11.6501718778
  - # 5
    frequency:   13.5052258495
  - # 6
    frequency:   13.5052258495

- q-position: [    0.5900000,    0.0900000,    0.5000000 ]
  distance:    0.1142353
  band:
  - # 1
    frequency:    4.9277225464
  - # 2
    frequency:    4.9277225464
  - # 3
    frequency:   11.6064263140
  - # 4
    frequency:   11.6064263140
  - # 5
    frequency:   13.5121250135
  - # 6
    frequency:   13.5121250135

- q-position: [    0.5950000,    0.0950000,    0.5000000 ]
  distance:    0.1152034
  band:
  - # 1
    frequency:    4.9699364572
  - # 2
    frequency:    4.9699364572
  - # 3
    frequency:   11.5613504020
  - # 4
    frequency:   11.5613504020
  - # 5
    frequency:   13.5188596421
  - # 6
    frequency:   13.5188596421

- q-position: [    0.6000000,    0.1000000,    0.5000000 ]
  distance:    0.1161715
  band:
  - # 1
    frequency:    5.0135356628
  - # 2
    frequency:    5.0135356628
  - # 3
    frequency:   11.5150795407
  - # 4
    frequency:   11.5150795407
  - # 5
    frequency:   13.5253988964
  - # 6
    frequency:   13.5253988964

- q-position: [    0.6050000,    0.1050000,    0.5000000 ]
  distance:    0.1171396
  band:
  - # 1
    frequency:    5.0583886217
  - # 2
    frequency:    5.0583886217
  - # 3
    frequency:   11.4677503225
  - # 4
    frequency:   11.4677503225
  - # 5
    frequency:   13.5317172715
  - # 6
    frequency:   13.5317172715

- q-position: [    0.6100000,    0.1100000,    0.5000000 ]
  distance:    0.1181077
  band:
  - # 1
    frequency:    5.1043584648
  - # 2
    frequency:    5.1043584648
  - # 3
    frequency:   11.4195011063
  - # 4
    frequency:   11.4195011063
  - # 5
    frequency:   13.5377941978
  - # 6
    frequency:   13.5377941978

- q-position: [    0.6150000,    0.1150000,    0.5000000 ]
  distance:    0.1190758
  band:
  - # 1
    frequency:    5.1513029135
  - # 2
    frequency:    5.1513029135
  - # 3
    frequency:   11.3704726195
  - # 4
    frequency:   11.3704726195
  - # 5
    frequency:   13.5436136235
  - # 6
    frequency:   13.5436136235

- q-position: [    0.6200000,    0.1200000,    0.5000000 ]
  distance:    0.1200439
  band:
  - # 1
    frequency:    5.1990741589
  - # 2
    frequency:    5.1990741589
  - # 3
    frequency:   11.3208085740
  - # 4
    frequency:   11.3208085740
  - # 5
    frequency:   13.5491635935
  - # 6
    frequency:   13.5491635935

- q-position: [    0.6250000,    0.1250000,    0.5000000 ]
  distance:    0.1210120
  band:
  - # 1
    frequency:    5.2475187077
  - # 2
    frequency:    5.2475187077
  - # 3
    frequency:   11.2706562825
  - # 4
    frequency:   11.2706562825
  - # 5
    frequency:   13.5544358328
  - # 6
    frequency:   13.5544358328

- q-position: [    0.6300000,    0.1300000,    0.5000000 ]
  distance:    0.1219801
  band:
  - # 1
    frequency:    5.2964772038
  - # 2
    frequency:    5.2964772038
  - # 3
    frequency:   11.2201672618
  - # 4
    frequency:   11.2201672618
  - # 5
    frequency:   13.5594253429
  - # 6
    frequency:   13.5594253429

- q-position: [    0.6350000,    0.1350000,    0.5000000 ]
  distance:    0.1229482
  band:
  - # 1
    frequency:    5.3457842317
  - # 2
    frequency:    5.3457842317
  - # 3
    frequency:   11.1694978107
  - # 4
    frequency:   11.1694978107
  - # 5
    frequency:   13.5641300151
  - # 6
    frequency:   13.5641300151

- q-position: [    0.6400000,    0.1400000,    0.5000000 ]
  distance:    0.1239163
  band:
  - # 1
    frequency:    5.3952681166
  - # 2
    frequency:    5.3952681166
  - # 3
    frequency:   11.1188095513
  - # 4
    frequency:   11.1188095513
  - # 5
    frequency:   13.5685502637
  - # 6
    frequency:   13.5685502637

- q-position: [    0.6450000,    0.1450000,    0.5000000 ]
  distance:    0.1248844
  band:
  - # 1
    frequency:    5.4447507355
  - # 2
    frequency:    5.4447507355
  - # 3
    frequency:   11.0682699162
  - # 4
    frequency:   11.0682699162
  - # 5
    frequency:   13.5726886802
  - # 6
    frequency:   13.5726886802

- q-position: [    0.6500000,    0.1500000,    0.5000000 ]
  distance:    0.1258525
  band:
  - # 1
    frequency:    5.4940473585
  - # 2
    frequency:    5.4940473585
  - # 3
    frequency:   11.0180525668
  - # 4
    frequency:   11.0180525668
  - # 5
    frequency:   13.5765497099
  - # 6
    frequency:   13.5765497099

- q-position: [    0.6550000,    0.1550000,    0.5000000 ]
  distance:    0.1268206
  band:
  - # 1
    frequency:    5.5429665426
  - # 2
    frequency:    5.5429665426
  - # 3
    frequency:   10.9683377205
  - # 4
    frequency:   10.9683377205
  - # 5
    frequency:   13.5801393502
  - # 6
    frequency:   13.5801393502

- q-position: [    0.6600000,    0.1600000,    0.5000000 ]
  distance:    0.1277887
  band:
  - # 1
    frequency:    5.5913101067
  - # 2
    frequency:    5.5913101067
  - # 3
    frequency:   10.9193123631
  - # 4
    frequency:   10.9193123631
  - # 5
    frequency:   13.5834648708
  - # 6
    frequency:   13.5834648708

- q-position: [    0.6650000,    0.1650000,    0.5000000 ]
  distance:    0.1287568
  band:
  - # 1
    frequency:    5.6388732198
  - # 2
    frequency:    5.6388732198
  - # 3
    frequency:   10.8711703165
  - # 4
    frequency:   10.8711703165
  - # 5
    frequency:   13.5865345535
  - # 6
    frequency:   13.5865345535

- q-position: [    0.6700000,    0.1700000,    0.5000000 ]
  distance:    0.1297249
  band:
  - # 1
    frequency:    5.6854446378
  - # 2
    frequency:    5.6854446378
  - # 3
    frequency:   10.8241121285
  - # 4
    frequency:   10.8241121285
  - # 5
    frequency:   13.5893574533
  - # 6
    frequency:   13.5893574533

- q-position: [    0.6750000,    0.1750000,    0.5000000 ]
  distance:    0.1306930
  band:
  - # 1
    frequency:    5.7308071326
  - # 2
    frequency:    5.7308071326
  - # 3
    frequency:   10.7783447464
  - # 4
    frequency:   10.7783447464
  - # 5
    frequency:   13.5919431770
  - # 6
    frequency:   13.5919431770

- q-position: [    0.6800000,    0.1800000,    0.5000000 ]
  distance:    0.1316611
  band:
  - # 1
    frequency:    5.7747381556
  - # 2
    frequency:    5.7747381556
  - # 3
    frequency:   10.7340809335
  - # 4
    frequency:   10.7340809335
  - # 5
    frequency:   13.5943016807
  - # 6
    frequency:   13.5943016807

- q-position: [    0.6850000,    0.1850000,    0.5000000 ]
  distance:    0.1326292
  band:
  - # 1
    frequency:    5.8170107832
  - # 2
    frequency:    5.8170107832
  - # 3
    frequency:   10.6915383846
  - # 4
    frequency:   10.6915383846
  - # 5
    frequency:   13.5964430829
  - # 6
    frequency:   13.5964430829
