
     Program PWSCF v.6.4 starts on 23May2019 at  9:41:27 

     This program is part of the open-source Quantum ESPRESSO suite
     for quantum simulation of materials; please cite
         "P. Giannozzi et al., J. Phys.:Condens. Matter 21 395502 (2009);
         "P. Giannozzi et al., J. Phys.:Condens. Matter 29 465901 (2017);
          URL http://www.quantum-espresso.org", 
     in publications or presentations arising from this work. More details at
     http://www.quantum-espresso.org/quote

     Parallel version (MPI), running on     4 processors

     MPI processes distributed on     1 nodes
     R & G space division:  proc/nbgrp/npool/nimage =       4
     Waiting for input...
     Reading input from standard input

     Current dimensions of program PWSCF are:
     Max number of different atomic species (ntypx) = 10
     Max number of k-points (npk) =  40000
     Max angular momentum in pseudopotentials (lmaxx) =  3
               file Si.pbe-n-kjpaw_psl.0.1.UPF: wavefunction(s)  3S renormalized

     Subspace diagonalization in iterative solution of the eigenvalue problem:
     a serial algorithm will be used


     Parallelization info
     --------------------
     sticks:   dense  smooth     PW     G-vecs:    dense   smooth      PW
     Min         526     526    148                16105    16105    2394
     Max         527     527    150                16110    16110    2395
     Sum        2107    2107    595                64431    64431    9577



     bravais-lattice index     =            0
     lattice parameter (alat)  =      14.6077  a.u.
     unit-cell volume          =    2204.0937 (a.u.)^3
     number of atoms/cell      =           16
     number of atomic types    =            1
     number of electrons       =        64.00
     number of Kohn-Sham states=           38
     kinetic-energy cutoff     =      36.0000  Ry
     charge density cutoff     =     144.0000  Ry
     convergence threshold     =      1.0E-08
     mixing beta               =       0.7000
     number of iterations used =            8  plain     mixing
     Exchange-correlation      = SLA PW PBX PBC ( 1  4  3  4 0 0)

     celldm(1)=  14.607695  celldm(2)=   0.000000  celldm(3)=   0.000000
     celldm(4)=   0.000000  celldm(5)=   0.000000  celldm(6)=   0.000000

     crystal axes: (cart. coord. in units of alat)
               a(1) = (   0.000000   0.707107   0.707107 )  
               a(2) = (   0.707107   0.000000   0.707107 )  
               a(3) = (   0.707107   0.707107   0.000000 )  

     reciprocal axes: (cart. coord. in units 2 pi/alat)
               b(1) = ( -0.707107  0.707107  0.707107 )  
               b(2) = (  0.707107 -0.707107  0.707107 )  
               b(3) = (  0.707107  0.707107 -0.707107 )  


     PseudoPot. # 1 for Si read from file:
     /home/ty/espresso/pseudo/Si.pbe-n-kjpaw_psl.0.1.UPF
     MD5 check sum: 0810ef13ebffcf5dbabd57b297315270
     Pseudo is Projector augmented-wave + core cor, Zval =  4.0
     Generated using "atomic" code by A. Dal Corso v.5.0.2 svn rev. 9415
     Shape of augmentation charge: PSQ
     Using radial grid of 1141 points,  4 beta functions with: 
                l(1) =   0
                l(2) =   0
                l(3) =   1
                l(4) =   1
     Q(r) pseudized with 0 coefficients 


     atomic species   valence    mass     pseudopotential
        Si             4.00    28.08550     Si( 1.00)

      2 Sym. Ops. (no inversion) found



   Cartesian axes

     site n.     atom                  positions (alat units)
         1           Si  tau(   1) = (   0.0000000   0.0009681   0.0009681  )
         2           Si  tau(   2) = (   0.0000000   0.3535534   0.3535534  )
         3           Si  tau(   3) = (   0.3535534   0.0000000   0.3535534  )
         4           Si  tau(   4) = (   0.3535534   0.3535534   0.7071068  )
         5           Si  tau(   5) = (   0.3535534   0.3535534   0.0000000  )
         6           Si  tau(   6) = (   0.3535534   0.7071068   0.3535534  )
         7           Si  tau(   7) = (   0.7071068   0.3535534   0.3535534  )
         8           Si  tau(   8) = (   0.7071068   0.7071068   0.7071068  )
         9           Si  tau(   9) = (   0.1767767   0.1767767   0.1767767  )
        10           Si  tau(  10) = (   0.1767767   0.5303301   0.5303301  )
        11           Si  tau(  11) = (   0.5303301   0.1767767   0.5303301  )
        12           Si  tau(  12) = (   0.5303301   0.5303301   0.8838835  )
        13           Si  tau(  13) = (   0.5303301   0.5303301   0.1767767  )
        14           Si  tau(  14) = (   0.5303301   0.8838835   0.5303301  )
        15           Si  tau(  15) = (   0.8838835   0.5303301   0.5303301  )
        16           Si  tau(  16) = (   0.8838835   0.8838835   0.8838835  )

     number of k points=    72  gaussian smearing, width (Ry)=  0.0100
                       cart. coord. in units 2pi/alat
        k(    1) = (   0.0883883   0.0883883   0.0883883), wk =   0.0156250
        k(    2) = (   0.2651650   0.2651650  -0.0883883), wk =   0.0312500
        k(    3) = (  -0.2651650  -0.2651650   0.4419417), wk =   0.0312500
        k(    4) = (  -0.0883883  -0.0883883   0.2651650), wk =   0.0312500
        k(    5) = (   0.4419417   0.0883883   0.0883883), wk =   0.0156250
        k(    6) = (  -0.0883883  -0.4419417   0.6187184), wk =   0.0312500
        k(    7) = (   0.0883883  -0.2651650   0.4419417), wk =   0.0312500
        k(    8) = (  -0.6187184   0.0883883   0.0883883), wk =   0.0156250
        k(    9) = (   0.2651650   0.2651650   0.2651650), wk =   0.0156250
        k(   10) = (  -0.2651650  -0.2651650   0.7954951), wk =   0.0312500
        k(   11) = (  -0.0883883   0.0883883  -0.0883883), wk =   0.0312500
        k(   12) = (   0.0883883  -0.0883883  -0.0883883), wk =   0.0156250
        k(   13) = (  -0.2651650   0.2651650   0.0883883), wk =   0.0312500
        k(   14) = (   0.2651650  -0.2651650   0.0883883), wk =   0.0312500
        k(   15) = (   0.2651650   0.2651650   0.0883883), wk =   0.0312500
        k(   16) = (  -0.0883883  -0.2651650   0.2651650), wk =   0.0312500
        k(   17) = (   0.0883883  -0.2651650  -0.2651650), wk =   0.0156250
        k(   18) = (   0.0883883   0.2651650   0.2651650), wk =   0.0156250
        k(   19) = (   0.2651650  -0.2651650  -0.4419417), wk =   0.0312500
        k(   20) = (  -0.2651650   0.2651650  -0.4419417), wk =   0.0312500
        k(   21) = (  -0.2651650  -0.2651650  -0.4419417), wk =   0.0312500
        k(   22) = (   0.4419417   0.2651650  -0.2651650), wk =   0.0312500
        k(   23) = (  -0.4419417   0.2651650   0.2651650), wk =   0.0156250
        k(   24) = (  -0.4419417  -0.2651650  -0.2651650), wk =   0.0156250
        k(   25) = (   0.0883883  -0.0883883  -0.2651650), wk =   0.0312500
        k(   26) = (  -0.0883883   0.0883883  -0.2651650), wk =   0.0312500
        k(   27) = (  -0.0883883  -0.0883883  -0.2651650), wk =   0.0312500
        k(   28) = (   0.2651650   0.0883883  -0.0883883), wk =   0.0312500
        k(   29) = (  -0.2651650   0.0883883   0.0883883), wk =   0.0156250
        k(   30) = (  -0.2651650  -0.0883883  -0.0883883), wk =   0.0156250
        k(   31) = (  -0.4419417   0.0883883  -0.0883883), wk =   0.0312500
        k(   32) = (   0.4419417  -0.0883883  -0.0883883), wk =   0.0156250
        k(   33) = (   0.0883883   0.4419417  -0.0883883), wk =   0.0312500
        k(   34) = (  -0.0883883  -0.4419417  -0.0883883), wk =   0.0312500
        k(   35) = (   0.0883883  -0.4419417   0.0883883), wk =   0.0312500
        k(   36) = (  -0.0883883   0.4419417   0.0883883), wk =   0.0312500
        k(   37) = (   0.0883883  -0.4419417  -0.6187184), wk =   0.0312500
        k(   38) = (  -0.0883883   0.4419417  -0.6187184), wk =   0.0312500
        k(   39) = (  -0.4419417  -0.0883883  -0.6187184), wk =   0.0312500
        k(   40) = (   0.4419417   0.0883883  -0.6187184), wk =   0.0312500
        k(   41) = (  -0.4419417   0.0883883   0.6187184), wk =   0.0312500
        k(   42) = (   0.4419417  -0.0883883   0.6187184), wk =   0.0312500
        k(   43) = (   0.6187184   0.4419417  -0.0883883), wk =   0.0312500
        k(   44) = (  -0.6187184   0.4419417   0.0883883), wk =   0.0312500
        k(   45) = (   0.6187184  -0.4419417   0.0883883), wk =   0.0312500
        k(   46) = (  -0.6187184  -0.4419417  -0.0883883), wk =   0.0312500
        k(   47) = (  -0.0883883  -0.6187184  -0.4419417), wk =   0.0312500
        k(   48) = (  -0.0883883  -0.2651650  -0.4419417), wk =   0.0312500
        k(   49) = (   0.0883883   0.2651650  -0.4419417), wk =   0.0312500
        k(   50) = (  -0.2651650   0.0883883  -0.4419417), wk =   0.0312500
        k(   51) = (   0.2651650  -0.0883883  -0.4419417), wk =   0.0312500
        k(   52) = (  -0.2651650  -0.0883883   0.4419417), wk =   0.0312500
        k(   53) = (   0.2651650   0.0883883   0.4419417), wk =   0.0312500
        k(   54) = (   0.4419417   0.2651650   0.0883883), wk =   0.0312500
        k(   55) = (  -0.4419417   0.2651650  -0.0883883), wk =   0.0312500
        k(   56) = (   0.4419417  -0.2651650  -0.0883883), wk =   0.0312500
        k(   57) = (  -0.4419417  -0.2651650   0.0883883), wk =   0.0312500
        k(   58) = (   0.0883883  -0.4419417  -0.2651650), wk =   0.0312500
        k(   59) = (   0.6187184   0.0883883  -0.0883883), wk =   0.0312500
        k(   60) = (  -0.6187184  -0.0883883  -0.0883883), wk =   0.0156250
        k(   61) = (   0.0883883  -0.6187184  -0.0883883), wk =   0.0312500
        k(   62) = (  -0.0883883   0.6187184  -0.0883883), wk =   0.0312500
        k(   63) = (   0.0883883   0.6187184   0.0883883), wk =   0.0312500
        k(   64) = (  -0.0883883  -0.6187184   0.0883883), wk =   0.0312500
        k(   65) = (  -0.2651650   0.2651650  -0.2651650), wk =   0.0312500
        k(   66) = (   0.2651650  -0.2651650  -0.2651650), wk =   0.0156250
        k(   67) = (   0.2651650  -0.2651650  -0.7954951), wk =   0.0312500
        k(   68) = (  -0.2651650   0.2651650  -0.7954951), wk =   0.0312500
        k(   69) = (  -0.2651650  -0.2651650  -0.7954951), wk =   0.0312500
        k(   70) = (   0.7954951   0.2651650  -0.2651650), wk =   0.0312500
        k(   71) = (  -0.7954951   0.2651650   0.2651650), wk =   0.0156250
        k(   72) = (  -0.7954951  -0.2651650  -0.2651650), wk =   0.0156250

     Dense  grid:    64431 G-vectors     FFT dimensions: (  60,  60,  60)

     Estimated max dynamical RAM per process >     122.06 MB

     Estimated total dynamical RAM >     488.26 MB

     Check: negative core charge=   -0.000003

     Initial potential from superposition of free atoms

     starting charge   63.99105, renormalised to   64.00000
     Starting wfcs are   64 randomized atomic wfcs
     Checking if some PAW data can be deallocated... 

     total cpu time spent up to now is       17.3 secs

     Self-consistent Calculation

     iteration #  1     ecut=    36.00 Ry     beta= 0.70
     Davidson diagonalization with overlap
     ethr =  1.00E-02,  avg # of iterations =  3.0

     Threshold (ethr) on eigenvalues was too large:
     Diagonalizing with lowered threshold

     Davidson diagonalization with overlap
     ethr =  6.95E-04,  avg # of iterations =  1.1

     total cpu time spent up to now is       86.8 secs

     total energy              =    -747.61727243 Ry
     Harris-Foulkes estimate   =    -747.72140546 Ry
     estimated scf accuracy    <       0.44162174 Ry

     iteration #  2     ecut=    36.00 Ry     beta= 0.70
     Davidson diagonalization with overlap
     ethr =  6.90E-04,  avg # of iterations =  1.0

     total cpu time spent up to now is      112.4 secs

     total energy              =    -747.63374379 Ry
     Harris-Foulkes estimate   =    -747.63471823 Ry
     estimated scf accuracy    <       0.01896656 Ry

     iteration #  3     ecut=    36.00 Ry     beta= 0.70
     Davidson diagonalization with overlap
     ethr =  2.96E-05,  avg # of iterations =  7.5

     total cpu time spent up to now is      153.5 secs

     total energy              =    -747.63550953 Ry
     Harris-Foulkes estimate   =    -747.63561228 Ry
     estimated scf accuracy    <       0.00039031 Ry

     iteration #  4     ecut=    36.00 Ry     beta= 0.70
     Davidson diagonalization with overlap
     ethr =  6.10E-07,  avg # of iterations =  4.6

     total cpu time spent up to now is      199.7 secs

     total energy              =    -747.63565988 Ry
     Harris-Foulkes estimate   =    -747.63571294 Ry
     estimated scf accuracy    <       0.00011843 Ry

     iteration #  5     ecut=    36.00 Ry     beta= 0.70
     Davidson diagonalization with overlap
     ethr =  1.85E-07,  avg # of iterations =  2.2

     total cpu time spent up to now is      234.0 secs

     total energy              =    -747.63568740 Ry
     Harris-Foulkes estimate   =    -747.63568981 Ry
     estimated scf accuracy    <       0.00000708 Ry

     iteration #  6     ecut=    36.00 Ry     beta= 0.70
     Davidson diagonalization with overlap
     ethr =  1.11E-08,  avg # of iterations =  2.8

     total cpu time spent up to now is      274.4 secs

     total energy              =    -747.63568910 Ry
     Harris-Foulkes estimate   =    -747.63568928 Ry
     estimated scf accuracy    <       0.00000042 Ry

     iteration #  7     ecut=    36.00 Ry     beta= 0.70
     Davidson diagonalization with overlap
     ethr =  6.62E-10,  avg # of iterations =  2.9

     total cpu time spent up to now is      314.9 secs

     total energy              =    -747.63568921 Ry
     Harris-Foulkes estimate   =    -747.63568924 Ry
     estimated scf accuracy    <       0.00000005 Ry

     iteration #  8     ecut=    36.00 Ry     beta= 0.70
     Davidson diagonalization with overlap
     ethr =  7.44E-11,  avg # of iterations =  2.2

     total cpu time spent up to now is      349.5 secs

     End of self-consistent calculation

          k = 0.0884 0.0884 0.0884 (  7994 PWs)   bands (ev):

    -5.7755  -3.7359  -3.5254  -3.5207  -3.5180  -2.2036  -2.2000  -2.1968
    -1.2621  -1.2591  -1.2556  -0.8183  -0.8172  -0.8116  -0.5868   3.0111
     3.0143   3.0156   3.2477   3.2482   3.2505   4.4602   4.4680   4.4701
     4.7255   4.7267   4.7303   4.8521   4.8570   5.4703   5.9247   5.9305
     6.7748   6.7788   6.7800   7.1308   7.1331   7.1377

          k = 0.2652 0.2652-0.0884 (  8035 PWs)   bands (ev):

    -5.5086  -4.2742  -3.8317  -3.2570  -3.2516  -2.9723  -2.9674  -2.1669
    -1.1945  -0.7171  -0.7117  -0.3214  -0.3167  -0.0789   0.4351   2.1354
     2.7531   2.7550   3.1933   3.1983   3.2810   3.2853   3.4609   3.9478
     3.9718   4.2682   4.2714   4.4263   4.7477   4.7523   5.1200   5.8120
     7.0538   7.2954   7.2997   7.9800   8.1850   8.1873

          k =-0.2652-0.2652 0.4419 (  8040 PWs)   bands (ev):

    -5.1172  -4.8646  -3.6114  -3.4416  -3.4365  -2.8556  -2.8146  -2.8094
    -0.7153  -0.5904  -0.5859  -0.0610  -0.0558   0.3322   1.7567   2.2160
     2.2184   2.2503   2.4845   2.8142   2.8168   2.9268   3.5810   3.5838
     3.8021   3.8762   3.8818   3.9634   4.6331   5.0235   5.2133   5.3515
     7.4860   7.6681   7.7168   7.7216   7.9939   7.9989

          k =-0.0884-0.0884 0.2652 (  8028 PWs)   bands (ev):

    -5.6414  -3.9666  -3.6084  -3.6032  -3.3857  -3.0544  -2.1513  -2.1465
    -1.2439  -1.2393  -0.7621  -0.5223  -0.5168  -0.2573  -0.1206   2.5961
     2.5984   3.1237   3.1266   3.1510   3.3700   3.6322   3.9203   3.9243
     4.4170   4.5879   4.6174   4.6253   4.7256   4.9459   5.5036   5.6533
     6.7814   7.2069   7.2116   7.4873   7.8938   7.9381

          k = 0.4419 0.0884 0.0884 (  8047 PWs)   bands (ev):

    -5.3743  -4.1455  -3.8100  -3.7090  -3.7089  -3.3528  -2.0693  -2.0692
    -1.2211  -1.2209  -0.4285  -0.0298  -0.0298   0.4779   0.7855   2.2279
     2.2292   2.7449   2.8321   2.8335   3.1231   3.1241   3.4250   3.6075
     3.6145   3.8276   4.4716   4.5531   4.5545   4.9444   4.9857   5.0328
     6.9119   7.9810   8.0631   8.1546   8.1547   8.2099

          k =-0.0884-0.4419 0.6187 (  8045 PWs)   bands (ev):

    -4.8521  -4.6054  -4.3368  -4.1067  -3.2196  -2.8825  -2.6084  -2.3980
    -0.8952  -0.6629  -0.4960  -0.1104   0.9838   1.4912   1.6894   1.8418
     1.8665   2.0254   2.1672   2.3346   2.9569   3.0885   3.2406   3.4249
     3.4736   3.7857   3.9257   3.9777   4.1186   4.3520   4.7736   5.0586
     7.7778   8.1213   8.1486   8.6041   8.7504   9.0004

          k = 0.0884-0.2652 0.4419 (  8044 PWs)   bands (ev):

    -5.2446  -4.4928  -4.0111  -3.7053  -3.2134  -3.0008  -2.8105  -2.2455
    -1.0766  -0.6665  -0.4618  -0.4362   0.4862   0.6031   1.0875   1.8706
     2.3501   2.4206   2.6418   3.0541   3.1174   3.1587   3.4392   3.4829
     3.6133   3.9527   4.0357   4.0970   4.3651   4.5475   4.9556   5.4300
     7.4851   7.5738   8.2389   8.2597   8.3412   8.4685

          k =-0.6187 0.0884 0.0884 (  8050 PWs)   bands (ev):

    -4.9771  -4.4534  -4.2428  -3.7746  -3.7745  -3.3561  -2.0058  -2.0058
    -1.2123  -1.2122  -0.0499   0.4522   0.4523   1.0526   1.8313   2.0324
     2.0330   2.0900   2.4683   2.4686   2.6160   2.6166   2.8622   2.8977
     3.8405   3.9590   4.3774   4.4059   4.4138   4.5079   4.5082   5.0010
     7.1733   7.5452   8.1332   8.7082   8.7505   8.7509

          k = 0.2652 0.2652 0.2652 (  8024 PWs)   bands (ev):

    -5.3774  -4.6235  -3.3406  -3.3361  -3.3334  -2.9123  -2.9083  -2.9053
    -0.4610  -0.4599  -0.4555  -0.4235  -0.4219  -0.4166   1.0529   2.3971
     2.4009   2.4017   3.0388   3.0445   3.0460   3.2486   3.5742   3.5746
     3.5772   4.1544   4.1549   4.1581   5.0724   5.0771   5.4847   5.4899
     7.1994   7.2037   7.2042   7.7575   7.9327   8.2095

          k =-0.2652-0.2652 0.7955 (  8045 PWs)   bands (ev):

    -4.9867  -4.7307  -4.2260  -3.5061  -3.5011  -2.7368  -2.7316  -2.5367
    -0.8284  -0.7240  -0.7192   0.2784   0.2835   1.0486   1.7475   1.7506
     2.1680   2.1719   2.4112   2.5909   2.5932   3.4732   3.4764   3.6452
     3.6531   3.6564   3.8640   3.9775   4.1323   4.4825   4.5491   5.5077
     7.5201   7.8671   8.2608   8.4615   8.4657   8.8631

          k =-0.0884 0.0884-0.0884 (  7994 PWs)   bands (ev):

    -5.7755  -3.7376  -3.5249  -3.5207  -3.5165  -2.2048  -2.1999  -2.1951
    -1.2643  -1.2592  -1.2543  -0.8224  -0.8173  -0.8120  -0.5827   3.0128
     3.0149   3.0171   3.2453   3.2477   3.2502   4.4665   4.4694   4.4721
     4.7216   4.7249   4.7282   4.8494   4.8576   5.4751   5.9199   5.9299
     6.7729   6.7765   6.7800   7.1315   7.1352   7.1388

          k = 0.0884-0.0884-0.0884 (  7994 PWs)   bands (ev):

    -5.7755  -3.7393  -3.5233  -3.5207  -3.5160  -2.2031  -2.1999  -2.1963
    -1.2629  -1.2593  -1.2564  -0.8228  -0.8173  -0.8163  -0.5786   3.0143
     3.0156   3.0187   3.2449   3.2472   3.2478   4.4686   4.4707   4.4785
     4.7193   4.7233   4.7244   4.8501   4.8546   5.4801   5.9193   5.9250
     6.7729   6.7742   6.7782   7.1326   7.1372   7.1395

          k =-0.2652 0.2652 0.0884 (  8035 PWs)   bands (ev):

    -5.5087  -4.2749  -3.8328  -3.2550  -3.2497  -2.9713  -2.9664  -2.1697
    -1.1911  -0.7217  -0.7162  -0.3240  -0.3195  -0.0758   0.4382   2.1384
     2.7542   2.7560   3.1976   3.2037   3.2831   3.2855   3.4575   3.9505
     3.9774   4.2653   4.2688   4.4216   4.7431   4.7549   5.1205   5.8038
     7.0492   7.2948   7.2987   7.9789   8.1810   8.1869

          k = 0.2652-0.2652 0.0884 (  8035 PWs)   bands (ev):

    -5.5087  -4.2741  -3.8340  -3.2551  -3.2498  -2.9714  -2.9664  -2.1710
    -1.1891  -0.7216  -0.7160  -0.3238  -0.3192  -0.0717   0.4346   2.1376
     2.7518   2.7537   3.1970   3.2020   3.2842   3.2886   3.4575   3.9470
     3.9748   4.2665   4.2695   4.4223   4.7422   4.7587   5.1233   5.8035
     7.0493   7.2964   7.3007   7.9805   8.1812   8.1842

          k = 0.2652 0.2652 0.0884 (  8035 PWs)   bands (ev):

    -5.5085  -4.2733  -3.8330  -3.2570  -3.2517  -2.9723  -2.9675  -2.1683
    -1.1924  -0.7169  -0.7115  -0.3210  -0.3164  -0.0749   0.4316   2.1346
     2.7508   2.7526   3.1917   3.1977   3.2840   3.2864   3.4609   3.9441
     3.9694   4.2691   4.2724   4.4271   4.7472   4.7555   5.1227   5.8116
     7.0539   7.2974   7.3013   7.9816   8.1836   8.1866

          k =-0.0884-0.2652 0.2652 (  8035 PWs)   bands (ev):

    -5.5086  -4.2741  -3.8329  -3.2556  -3.2510  -2.9727  -2.9660  -2.1690
    -1.1918  -0.7213  -0.7118  -0.3247  -0.3159  -0.0753   0.4348   2.1365
     2.7519   2.7549   3.1967   3.1987   3.2829   3.2866   3.4593   3.9476
     3.9730   4.2658   4.2719   4.4245   4.7442   4.7562   5.1216   5.8078
     7.0515   7.2950   7.3011   7.9802   8.1832   8.1864

          k = 0.0884-0.2652-0.2652 (  8035 PWs)   bands (ev):

    -5.5087  -4.2750  -3.8316  -3.2535  -3.2533  -2.9694  -2.9692  -2.1676
    -1.1938  -0.7167  -0.7167  -0.3207  -0.3205  -0.0793   0.4384   2.1373
     2.7547   2.7568   3.1983   3.1993   3.2815   3.2839   3.4592   3.9502
     3.9765   4.2673   4.2687   4.4236   4.7465   4.7510   5.1189   5.8080
     7.0515   7.2959   7.2966   7.9786   8.1837   8.1888

          k = 0.0884 0.2652 0.2652 (  8035 PWs)   bands (ev):

    -5.5086  -4.2733  -3.8341  -3.2536  -3.2533  -2.9694  -2.9693  -2.1703
    -1.1898  -0.7164  -0.7163  -0.3200  -0.3199  -0.0712   0.4313   2.1358
     2.7499   2.7521   3.1960   3.1970   3.2856   3.2880   3.4593   3.9430
     3.9715   4.2692   4.2707   4.4251   4.7445   4.7586   5.1244   5.8073
     7.0517   7.2995   7.3001   7.9819   8.1816   8.1865

          k = 0.2652-0.2652-0.4419 (  8040 PWs)   bands (ev):

    -5.1174  -4.8650  -3.6119  -3.4401  -3.4351  -2.8583  -2.8131  -2.8079
    -0.7106  -0.5939  -0.5892  -0.0656  -0.0605   0.3336   1.7606   2.2186
     2.2219   2.2528   2.4869   2.8155   2.8186   2.9300   3.5797   3.5824
     3.7982   3.8800   3.8826   3.9595   4.6350   5.0179   5.2168   5.3447
     7.4816   7.6634   7.7171   7.7213   7.9937   7.9976

          k =-0.2652 0.2652-0.4419 (  8040 PWs)   bands (ev):

    -5.1171  -4.8647  -3.6127  -3.4402  -3.4352  -2.8600  -2.8132  -2.8083
    -0.7064  -0.5933  -0.5885  -0.0649  -0.0599   0.3373   1.7578   2.2172
     2.2196   2.2495   2.4834   2.8124   2.8151   2.9263   3.5811   3.5838
     3.7986   3.8812   3.8868   3.9597   4.6381   5.0173   5.2216   5.3438
     7.4819   7.6634   7.7195   7.7241   7.9952   8.0002

          k =-0.2652-0.2652-0.4419 (  8040 PWs)   bands (ev):

    -5.1169  -4.8642  -3.6123  -3.4416  -3.4366  -2.8578  -2.8145  -2.8095
    -0.7108  -0.5897  -0.5852  -0.0604  -0.0552   0.3358   1.7539   2.2128
     2.2170   2.2480   2.4809   2.8106   2.8136   2.9234   3.5823   3.5850
     3.8022   3.8805   3.8831   3.9639   4.6361   5.0228   5.2179   5.3506
     7.4863   7.6684   7.7198   7.7237   7.9967   8.0006

          k = 0.4419 0.2652-0.2652 (  8040 PWs)   bands (ev):

    -5.1171  -4.8647  -3.6121  -3.4414  -3.4352  -2.8581  -2.8141  -2.8084
    -0.7108  -0.5941  -0.5848  -0.0655  -0.0554   0.3347   1.7573   2.2161
     2.2193   2.2501   2.4839   2.8122   2.8171   2.9265   3.5798   3.5849
     3.8004   3.8802   3.8828   3.9616   4.6356   5.0204   5.2173   5.3477
     7.4839   7.6656   7.7178   7.7233   7.9941   8.0001

          k =-0.4419 0.2652 0.2652 (  8040 PWs)   bands (ev):

    -5.1174  -4.8649  -3.6112  -3.4384  -3.4383  -2.8559  -2.8113  -2.8111
    -0.7152  -0.5902  -0.5900  -0.0612  -0.0609   0.3310   1.7601   2.2192
     2.2205   2.2527   2.4876   2.8167   2.8193   2.9302   3.5800   3.5820
     3.8000   3.8772   3.8803   3.9613   4.6325   5.0211   5.2128   5.3484
     7.4837   7.6657   7.7174   7.7182   7.9942   7.9957

          k =-0.4419-0.2652-0.2652 (  8040 PWs)   bands (ev):

    -5.1169  -4.8643  -3.6128  -3.4386  -3.4384  -2.8597  -2.8116  -2.8114
    -0.7065  -0.5889  -0.5885  -0.0599  -0.0597   0.3384   1.7544   2.2146
     2.2165   2.2471   2.4805   2.8100   2.8126   2.9231   3.5827   3.5846
     3.8006   3.8827   3.8860   3.9619   4.6386   5.0197   5.2222   5.3466
     7.4843   7.6660   7.7227   7.7234   7.9984   8.0001

          k = 0.0884-0.0884-0.2652 (  8028 PWs)   bands (ev):

    -5.6414  -3.9679  -3.6065  -3.6013  -3.3880  -3.0544  -2.1508  -2.1460
    -1.2446  -1.2400  -0.7573  -0.5268  -0.5214  -0.2572  -0.1166   2.5965
     2.5993   3.1237   3.1260   3.1543   3.3667   3.6344   3.9191   3.9228
     4.4197   4.5828   4.6234   4.6280   4.7280   4.9399   5.4970   5.6577
     6.7795   7.2071   7.2114   7.4891   7.8924   7.9391

          k =-0.0884 0.0884-0.2652 (  8028 PWs)   bands (ev):

    -5.6414  -3.9668  -3.6066  -3.6013  -3.3899  -3.0548  -2.1510  -2.1462
    -1.2443  -1.2396  -0.7528  -0.5266  -0.5212  -0.2562  -0.1201   2.5949
     2.5972   3.1250   3.1277   3.1535   3.3668   3.6313   3.9165   3.9205
     4.4228   4.5837   4.6244   4.6324   4.7232   4.9388   5.4967   5.6636
     6.7799   7.2092   7.2140   7.4890   7.8939   7.9341

          k =-0.0884-0.0884-0.2652 (  8028 PWs)   bands (ev):

    -5.6413  -3.9654  -3.6084  -3.6031  -3.3877  -3.0547  -2.1515  -2.1467
    -1.2434  -1.2389  -0.7576  -0.5222  -0.5167  -0.2564  -0.1241   2.5940
     2.5968   3.1256   3.1279   3.1500   3.3701   3.6291   3.9180   3.9216
     4.4201   4.5888   4.6213   4.6263   4.7211   4.9447   5.5034   5.6591
     6.7818   7.2095   7.2138   7.4872   7.8951   7.9378

          k = 0.2652 0.0884-0.0884 (  8028 PWs)   bands (ev):

    -5.6414  -3.9667  -3.6075  -3.6022  -3.3878  -3.0546  -2.1521  -2.1453
    -1.2455  -1.2379  -0.7575  -0.5266  -0.5170  -0.2567  -0.1204   2.5943
     2.5989   3.1235   3.1280   3.1522   3.3685   3.6317   3.9167   3.9240
     4.4199   4.5858   4.6237   4.6260   4.7244   4.9424   5.5001   5.6585
     6.7806   7.2078   7.2130   7.4882   7.8938   7.9343

          k =-0.2652 0.0884 0.0884 (  8028 PWs)   bands (ev):

    -5.6414  -3.9678  -3.6049  -3.6048  -3.3858  -3.0543  -2.1486  -2.1485
    -1.2422  -1.2420  -0.7620  -0.5219  -0.5219  -0.2579  -0.1167   2.5976
     2.5994   3.1231   3.1254   3.1533   3.3684   3.6347   3.9217   3.9240
     4.4167   4.5849   4.6208   4.6239   4.7291   4.9435   5.5004   5.6526
     6.7803   7.2078   7.2083   7.4882   7.8925   7.9394

          k =-0.2652-0.0884-0.0884 (  8028 PWs)   bands (ev):

    -5.6413  -3.9655  -3.6049  -3.6048  -3.3898  -3.0549  -2.1490  -2.1489
    -1.2414  -1.2412  -0.7530  -0.5216  -0.5216  -0.2560  -0.1238   2.5939
     2.5957   3.1263   3.1281   3.1515   3.3685   3.6286   3.9168   3.9191
     4.4229   4.5867   4.6259   4.6292   4.7198   4.9411   5.4999   5.6643
     6.7810   7.2125   7.2130   7.4881   7.8952   7.9352

          k =-0.4419 0.0884-0.0884 (  8047 PWs)   bands (ev):

    -5.3744  -4.1461  -3.8100  -3.7119  -3.7057  -3.3515  -2.0722  -2.0659
    -1.2252  -1.2177  -0.4321  -0.0350  -0.0250   0.4809   0.7841   2.2280
     2.2321   2.7476   2.8290   2.8341   3.1213   3.1282   3.4266   3.6065
     3.6129   3.8315   4.4712   4.5506   4.5545   4.9448   4.9862   5.0282
     6.9115   7.9814   8.0630   8.1489   8.1555   8.2099

          k = 0.4419-0.0884-0.0884 (  8047 PWs)   bands (ev):

    -5.3744  -4.1468  -3.8096  -3.7089  -3.7089  -3.3502  -2.0688  -2.0688
    -1.2220  -1.2218  -0.4358  -0.0303  -0.0302   0.4838   0.7827   2.2310
     2.2323   2.7502   2.8296   2.8311   3.1256   3.1265   3.4283   3.6073
     3.6093   3.8355   4.4705   4.5507   4.5520   4.9449   4.9873   5.0230
     6.9111   7.9818   8.0629   8.1497   8.1501   8.2098

          k = 0.0884 0.4419-0.0884 (  8047 PWs)   bands (ev):

    -5.3743  -4.1464  -3.8100  -3.7106  -3.7055  -3.3532  -2.0713  -2.0664
    -1.2240  -1.2194  -0.4277  -0.0349  -0.0296   0.4816   0.7848   2.2287
     2.2308   2.7469   2.8306   2.8332   3.1216   3.1257   3.4275   3.6055
     3.6141   3.8300   4.4688   4.5518   4.5595   4.9419   4.9832   5.0326
     6.9111   7.9808   8.0637   8.1511   8.1557   8.2076

          k =-0.0884-0.4419-0.0884 (  8047 PWs)   bands (ev):

    -5.3743  -4.1452  -3.8101  -3.7121  -3.7071  -3.3511  -2.0719  -2.0670
    -1.2230  -1.2186  -0.4328  -0.0302  -0.0248   0.4772   0.7847   2.2277
     2.2300   2.7456   2.8311   2.8338   3.1229   3.1266   3.4240   3.6088
     3.6129   3.8290   4.4738   4.5474   4.5537   4.9467   4.9895   5.0283
     6.9123   7.9813   8.0627   8.1512   8.1556   8.2122

          k = 0.0884-0.4419 0.0884 (  8047 PWs)   bands (ev):

    -5.3744  -4.1459  -3.8098  -3.7121  -3.7071  -3.3498  -2.0716  -2.0668
    -1.2235  -1.2190  -0.4365  -0.0304  -0.0251   0.4801   0.7833   2.2294
     2.2314   2.7482   2.8300   2.8326   3.1239   3.1280   3.4257   3.6083
     3.6107   3.8330   4.4732   4.5454   4.5532   4.9473   4.9899   5.0235
     6.9119   7.9816   8.0626   8.1487   8.1533   8.2122

          k =-0.0884 0.4419 0.0884 (  8047 PWs)   bands (ev):

    -5.3744  -4.1470  -3.8099  -3.7106  -3.7055  -3.3519  -2.0711  -2.0662
    -1.2244  -1.2199  -0.4314  -0.0352  -0.0299   0.4845   0.7834   2.2302
     2.2325   2.7496   2.8292   2.8320   3.1230   3.1267   3.4292   3.6054
     3.6115   3.8340   4.4684   4.5513   4.5578   4.9417   4.9843   5.0276
     6.9107   7.9812   8.0637   8.1487   8.1533   8.2075

          k = 0.0884-0.4419-0.6187 (  8045 PWs)   bands (ev):

    -4.8525  -4.6055  -4.3362  -4.1070  -3.2192  -2.8818  -2.6057  -2.4014
    -0.8898  -0.6681  -0.4978  -0.1122   0.9849   1.4865   1.6908   1.8437
     1.8678   2.0246   2.1694   2.3398   2.9566   3.0922   3.2368   3.4237
     3.4747   3.7849   3.9251   3.9773   4.1229   4.3515   4.7677   5.0585
     7.7767   8.1214   8.1499   8.5992   8.7480   9.0008

          k =-0.0884 0.4419-0.6187 (  8045 PWs)   bands (ev):

    -4.8524  -4.6054  -4.3364  -4.1072  -3.2187  -2.8825  -2.6048  -2.4027
    -0.8874  -0.6698  -0.4960  -0.1136   0.9867   1.4886   1.6889   1.8430
     1.8671   2.0242   2.1696   2.3375   2.9543   3.0935   3.2360   3.4260
     3.4715   3.7854   3.9250   3.9801   4.1242   4.3524   4.7670   5.0579
     7.7764   8.1215   8.1503   8.5995   8.7469   9.0050

          k =-0.4419-0.0884-0.6187 (  8045 PWs)   bands (ev):

    -4.8521  -4.6050  -4.3368  -4.1073  -3.2204  -2.8814  -2.6083  -2.3991
    -0.8932  -0.6630  -0.4980  -0.1083   0.9875   1.4919   1.6856   1.8408
     1.8657   2.0241   2.1675   2.3330   2.9555   3.0898   3.2407   3.4262
     3.4714   3.7837   3.9276   3.9793   4.1199   4.3499   4.7734   5.0615
     7.7787   8.1238   8.1498   8.6041   8.7508   9.0025

          k = 0.4419 0.0884-0.6187 (  8045 PWs)   bands (ev):

    -4.8521  -4.6057  -4.3368  -4.1064  -3.2184  -2.8842  -2.6077  -2.3982
    -0.8950  -0.6646  -0.4921  -0.1139   0.9820   1.4925   1.6912   1.8428
     1.8661   2.0261   2.1673   2.3339   2.9559   3.0887   3.2399   3.4258
     3.4725   3.7882   3.9232   3.9790   4.1186   4.3552   4.7732   5.0550
     7.7767   8.1186   8.1486   8.6042   8.7491   9.0024

          k =-0.4419 0.0884 0.6187 (  8045 PWs)   bands (ev):

    -4.8525  -4.6057  -4.3364  -4.1066  -3.2180  -2.8835  -2.6050  -2.4016
    -0.8895  -0.6698  -0.4940  -0.1157   0.9831   1.4879   1.6925   1.8440
     1.8682   2.0255   2.1693   2.3391   2.9557   3.0923   3.2361   3.4248
     3.4734   3.7873   3.9228   3.9784   4.1229   4.3547   4.7671   5.0550
     7.7755   8.1190   8.1494   8.5993   8.7467   9.0028

          k = 0.4419-0.0884 0.6187 (  8045 PWs)   bands (ev):

    -4.8524  -4.6052  -4.3362  -4.1076  -3.2199  -2.8807  -2.6057  -2.4025
    -0.8877  -0.6682  -0.4998  -0.1101   0.9885   1.4872   1.6870   1.8428
     1.8668   2.0235   2.1696   2.3381   2.9552   3.0934   3.2368   3.4252
     3.4725   3.7828   3.9270   3.9789   4.1243   4.3492   4.7676   5.0614
     7.7776   8.1235   8.1513   8.5994   8.7482   9.0029

          k = 0.6187 0.4419-0.0884 (  8045 PWs)   bands (ev):

    -4.8523  -4.6052  -4.3364  -4.1073  -3.2204  -2.8807  -2.6074  -2.4001
    -0.8916  -0.6648  -0.4998  -0.1085   0.9870   1.4886   1.6873   1.8419
     1.8668   2.0240   2.1684   2.3367   2.9566   3.0910   3.2391   3.4245
     3.4737   3.7829   3.9273   3.9779   4.1214   4.3491   4.7709   5.0617
     7.7782   8.1235   8.1503   8.6017   8.7500   9.0006

          k =-0.6187 0.4419 0.0884 (  8045 PWs)   bands (ev):

    -4.8524  -4.6057  -4.3365  -4.1064  -3.2184  -2.8835  -2.6068  -2.3992
    -0.8935  -0.6663  -0.4940  -0.1141   0.9816   1.4892   1.6927   1.8439
     1.8674   2.0260   2.1682   2.3376   2.9570   3.0898   3.2384   3.4242
     3.4745   3.7875   3.9232   3.9771   4.1202   4.3545   4.7704   5.0553
     7.7762   8.1188   8.1486   8.6017   8.7484   9.0005

          k = 0.6187-0.4419 0.0884 (  8045 PWs)   bands (ev):

    -4.8522  -4.6057  -4.3367  -4.1066  -3.2179  -2.8842  -2.6059  -2.4006
    -0.8911  -0.6681  -0.4921  -0.1155   0.9834   1.4911   1.6910   1.8431
     1.8668   2.0255   2.1685   2.3354   2.9546   3.0912   3.2377   3.4262
     3.4716   3.7880   3.9228   3.9803   4.1213   4.3554   4.7698   5.0547
     7.7760   8.1188   8.1493   8.6019   8.7473   9.0047

          k =-0.6187-0.4419-0.0884 (  8045 PWs)   bands (ev):

    -4.8522  -4.6049  -4.3366  -4.1076  -3.2199  -2.8815  -2.6065  -2.4014
    -0.8893  -0.6664  -0.4980  -0.1099   0.9889   1.4905   1.6853   1.8419
     1.8656   2.0235   2.1688   2.3343   2.9542   3.0923   3.2384   3.4267
     3.4704   3.7836   3.9272   3.9804   4.1228   4.3500   4.7702   5.0611
     7.7780   8.1239   8.1507   8.6019   8.7490   9.0048

          k =-0.0884-0.6187-0.4419 (  8045 PWs)   bands (ev):

    -4.8520  -4.6053  -4.3369  -4.1071  -3.2192  -2.8831  -2.6075  -2.3993
    -0.8929  -0.6646  -0.4941  -0.1118   0.9857   1.4931   1.6876   1.8417
     1.8652   2.0248   2.1677   2.3323   2.9544   3.0900   3.2400   3.4268
     3.4706   3.7863   3.9254   3.9807   4.1198   4.3530   4.7730   5.0579
     7.7776   8.1215   8.1493   8.6042   8.7495   9.0046

          k =-0.0884-0.2652-0.4419 (  8044 PWs)   bands (ev):

    -5.2445  -4.4921  -4.0121  -3.7053  -3.2155  -2.9983  -2.8110  -2.2466
    -1.0746  -0.6717  -0.4597  -0.4318   0.4907   0.6027   1.0834   1.8694
     2.3478   2.4194   2.6421   3.0517   3.1187   3.1572   3.4395   3.4830
     3.6156   3.9489   4.0401   4.0956   4.3608   4.5491   4.9616   5.4296
     7.4879   7.5738   8.2440   8.2594   8.3421   8.4693

          k = 0.0884 0.2652-0.4419 (  8044 PWs)   bands (ev):

    -5.2446  -4.4926  -4.0114  -3.7049  -3.2169  -2.9964  -2.8116  -2.2451
    -1.0771  -0.6759  -0.4593  -0.4279   0.4872   0.6012   1.0866   1.8702
     2.3499   2.4208   2.6423   3.0545   3.1164   3.1595   3.4399   3.4879
     3.6143   3.9466   4.0408   4.0917   4.3582   4.5466   4.9633   5.4299
     7.4879   7.5736   8.2430   8.2557   8.3433   8.4665

          k =-0.2652 0.0884-0.4419 (  8044 PWs)   bands (ev):

    -5.2445  -4.4929  -4.0104  -3.7056  -3.2147  -3.0007  -2.8118  -2.2428
    -1.0803  -0.6666  -0.4583  -0.4333   0.4834   0.6042   1.0879   1.8697
     2.3509   2.4195   2.6396   3.0548   3.1149   3.1572   3.4412   3.4851
     3.6112   3.9530   4.0369   4.0957   4.3649   4.5462   4.9566   5.4338
     7.4857   7.5760   8.2386   8.2580   8.3437   8.4678

          k = 0.2652-0.0884-0.4419 (  8044 PWs)   bands (ev):

    -5.2447  -4.4932  -4.0110  -3.7048  -3.2134  -2.9991  -2.8100  -2.2465
    -1.0753  -0.6707  -0.4635  -0.4363   0.4856   0.6005   1.0903   1.8722
     2.3513   2.4232   2.6440   3.0560   3.1176   3.1627   3.4373   3.4859
     3.6139   3.9506   4.0354   4.0942   4.3627   4.5461   4.9562   5.4265
     7.4847   7.5713   8.2388   8.2573   8.3398   8.4667

          k =-0.2652-0.0884 0.4419 (  8044 PWs)   bands (ev):

    -5.2447  -4.4926  -4.0120  -3.7047  -3.2155  -2.9965  -2.8104  -2.2476
    -1.0734  -0.6760  -0.4613  -0.4321   0.4901   0.6000   1.0862   1.8710
     2.3491   2.4218   2.6445   3.0538   3.1189   3.1611   3.4379   3.4858
     3.6162   3.9466   4.0396   4.0929   4.3584   4.5478   4.9623   5.4261
     7.4874   7.5713   8.2435   8.2571   8.3407   8.4675

          k = 0.2652 0.0884 0.4419 (  8044 PWs)   bands (ev):

    -5.2444  -4.4921  -4.0115  -3.7054  -3.2168  -2.9981  -2.8122  -2.2440
    -1.0783  -0.6717  -0.4579  -0.4275   0.4878   0.6037   1.0837   1.8685
     2.3488   2.4182   2.6399   3.0524   3.1163   3.1557   3.4414   3.4852
     3.6137   3.9490   4.0413   4.0943   4.3606   4.5478   4.9625   5.4335
     7.4884   7.5760   8.2434   8.2581   8.3446   8.4685

          k = 0.4419 0.2652 0.0884 (  8044 PWs)   bands (ev):

    -5.2444  -4.4922  -4.0113  -3.7057  -3.2152  -3.0004  -2.8117  -2.2442
    -1.0780  -0.6671  -0.4582  -0.4324   0.4873   0.6047   1.0843   1.8687
     2.3488   2.4180   2.6397   3.0523   3.1167   3.1552   3.4411   3.4827
     3.6132   3.9520   4.0387   4.0970   4.3641   4.5483   4.9587   5.4335
     7.4871   7.5761   8.2415   8.2599   8.3435   8.4694

          k =-0.4419 0.2652-0.0884 (  8044 PWs)   bands (ev):

    -5.2447  -4.4927  -4.0118  -3.7049  -3.2138  -2.9988  -2.8099  -2.2478
    -1.0731  -0.6712  -0.4632  -0.4357   0.4895   0.6011   1.0867   1.8712
     2.3491   2.4218   2.6442   3.0536   3.1193   3.1606   3.4375   3.4833
     3.6158   3.9497   4.0371   4.0956   4.3618   4.5483   4.9584   5.4262
     7.4860   7.5715   8.2414   8.2592   8.3397   8.4685

          k = 0.4419-0.2652-0.0884 (  8044 PWs)   bands (ev):

    -5.2447  -4.4931  -4.0111  -3.7047  -3.2152  -2.9968  -2.8104  -2.2463
    -1.0757  -0.6754  -0.4614  -0.4329   0.4861   0.5995   1.0899   1.8720
     2.3511   2.4233   2.6443   3.0563   3.1170   3.1631   3.4378   3.4884
     3.6144   3.9475   4.0380   4.0915   4.3593   4.5457   4.9601   5.4264
     7.4861   7.5713   8.2412   8.2549   8.3408   8.4655

          k =-0.4419-0.2652 0.0884 (  8044 PWs)   bands (ev):

    -5.2445  -4.4927  -4.0106  -3.7054  -3.2165  -2.9986  -2.8122  -2.2426
    -1.0806  -0.6712  -0.4579  -0.4285   0.4837   0.6033   1.0874   1.8695
     2.3507   2.4197   2.6398   3.0551   3.1143   3.1576   3.4415   3.4876
     3.6118   3.9499   4.0395   4.0931   4.3614   4.5457   4.9604   5.4337
     7.4871   7.5759   8.2406   8.2561   8.3448   8.4667

          k = 0.0884-0.4419-0.2652 (  8044 PWs)   bands (ev):

    -5.2447  -4.4933  -4.0103  -3.7052  -3.2148  -2.9990  -2.8111  -2.2438
    -1.0792  -0.6707  -0.4600  -0.4335   0.4828   0.6016   1.0907   1.8714
     2.3518   2.4224   2.6418   3.0567   3.1150   3.1611   3.4394   3.4880
     3.6118   3.9508   4.0366   4.0930   4.3625   4.5449   4.9573   5.4302
     7.4852   7.5736   8.2386   8.2554   8.3425   8.4657

          k = 0.6187 0.0884-0.0884 (  8050 PWs)   bands (ev):

    -4.9770  -4.4535  -4.2426  -3.7778  -3.7713  -3.3566  -2.0088  -2.0030
    -1.2158  -1.2083  -0.0482   0.4472   0.4576   1.0511   1.8334   2.0304
     2.0334   2.0890   2.4658   2.4702   2.6143   2.6190   2.8594   2.8991
     3.8379   3.9592   4.3809   4.4071   4.4128   4.5061   4.5106   5.0008
     7.1737   7.5447   8.1332   8.7082   8.7489   8.7520

          k =-0.6187-0.0884-0.0884 (  8050 PWs)   bands (ev):

    -4.9769  -4.4537  -4.2424  -3.7746  -3.7745  -3.3569  -2.0061  -2.0060
    -1.2119  -1.2118  -0.0465   0.4525   0.4526   1.0495   1.8354   2.0312
     2.0317   2.0873   2.4674   2.4677   2.6171   2.6175   2.8563   2.9006
     3.8354   3.9593   4.3848   4.4061   4.4135   4.5085   4.5090   5.0005
     7.1742   7.5443   8.1333   8.7084   8.7497   8.7505

          k = 0.0884-0.6187-0.0884 (  8050 PWs)   bands (ev):

    -4.9771  -4.4534  -4.2432  -3.7763  -3.7713  -3.3573  -2.0080  -2.0031
    -1.2149  -1.2105  -0.0461   0.4469   0.4521   1.0547   1.8325   2.0322
     2.0337   2.0897   2.4665   2.4700   2.6148   2.6174   2.8610   2.8982
     3.8410   3.9571   4.3811   4.4039   4.4113   4.5073   4.5144   4.9980
     7.1731   7.5446   8.1307   8.7060   8.7499   8.7561

          k =-0.0884 0.6187-0.0884 (  8050 PWs)   bands (ev):

    -4.9771  -4.4534  -4.2422  -3.7777  -3.7728  -3.3553  -2.0087  -2.0038
    -1.2138  -1.2094  -0.0519   0.4526   0.4578   1.0490   1.8323   2.0310
     2.0326   2.0893   2.4664   2.4700   2.6157   2.6182   2.8606   2.8985
     3.8373   3.9610   4.3769   4.4066   4.4176   4.5022   4.5092   5.0039
     7.1739   7.5452   8.1357   8.7104   8.7451   8.7510

          k = 0.0884 0.6187 0.0884 (  8050 PWs)   bands (ev):

    -4.9770  -4.4535  -4.2420  -3.7777  -3.7728  -3.3558  -2.0088  -2.0039
    -1.2136  -1.2092  -0.0502   0.4527   0.4580   1.0474   1.8343   2.0302
     2.0320   2.0880   2.4660   2.4694   2.6161   2.6188   2.8576   2.9000
     3.8347   3.9611   4.3808   4.4087   4.4155   4.5026   4.5094   5.0036
     7.1743   7.5448   8.1358   8.7106   8.7446   8.7510

          k =-0.0884-0.6187 0.0884 (  8050 PWs)   bands (ev):

    -4.9770  -4.4536  -4.2430  -3.7763  -3.7713  -3.3578  -2.0081  -2.0032
    -1.2147  -1.2103  -0.0444   0.4470   0.4523   1.0531   1.8345   2.0316
     2.0331   2.0882   2.4661   2.4696   2.6153   2.6178   2.8581   2.8997
     3.8385   3.9573   4.3846   4.4021   4.4131   4.5075   4.5151   4.9977
     7.1735   7.5442   8.1308   8.7061   8.7499   8.7554

          k =-0.2652 0.2652-0.2652 (  8024 PWs)   bands (ev):

    -5.3775  -4.6241  -3.3406  -3.3360  -3.3317  -2.9129  -2.9082  -2.9035
    -0.4667  -0.4604  -0.4558  -0.4268  -0.4225  -0.4162   1.0561   2.4002
     2.4025   2.4047   3.0431   3.0462   3.0492   3.2518   3.5715   3.5741
     3.5767   4.1511   4.1540   4.1569   5.0694   5.0776   5.4811   5.4898
     7.1970   7.2007   7.2044   7.7560   7.9285   7.9324

          k = 0.2652-0.2652-0.2652 (  8024 PWs)   bands (ev):

    -5.3777  -4.6246  -3.3388  -3.3360  -3.3317  -2.9111  -2.9081  -2.9041
    -0.4669  -0.4607  -0.4597  -0.4265  -0.4230  -0.4214   1.0593   2.4032
     2.4041   2.4078   3.0462   3.0478   3.0534   3.2553   3.5708   3.5736
     3.5739   4.1499   4.1531   4.1535   5.0698   5.0746   5.4812   5.4861
     7.1972   7.1978   7.2021   7.7544   7.9297   7.9334

          k = 0.2652-0.2652-0.7955 (  8045 PWs)   bands (ev):

    -4.9871  -4.7310  -4.2263  -3.5048  -3.4998  -2.7352  -2.7300  -2.5402
    -0.8227  -0.7277  -0.7229   0.2734   0.2784   1.0502   1.7482   1.7535
     2.1723   2.1756   2.4167   2.5909   2.5941   3.4713   3.4743   3.6511
     3.6554   3.6594   3.8601   3.9773   4.1281   4.4857   4.5444   5.5004
     7.5153   7.8631   8.2579   8.4600   8.4645   8.8607

          k =-0.2652 0.2652-0.7955 (  8045 PWs)   bands (ev):

    -4.9872  -4.7314  -4.2257  -3.5048  -3.4998  -2.7352  -2.7299  -2.5392
    -0.8248  -0.7280  -0.7232   0.2730   0.2781   1.0463   1.7518   1.7549
     2.1728   2.1767   2.4185   2.5929   2.5953   3.4706   3.4739   3.6507
     3.6534   3.6637   3.8599   3.9754   4.1277   4.4812   4.5449   5.5008
     7.5152   7.8630   8.2573   8.4585   8.4629   8.8596

          k =-0.2652-0.2652-0.7955 (  8045 PWs)   bands (ev):

    -4.9867  -4.7312  -4.2254  -3.5061  -3.5011  -2.7367  -2.7315  -2.5357
    -0.8306  -0.7242  -0.7195   0.2781   0.2831   1.0447   1.7488   1.7543
     2.1691   2.1725   2.4129   2.5920   2.5952   3.4728   3.4758   3.6459
     3.6524   3.6579   3.8639   3.9757   4.1317   4.4779   4.5497   5.5081
     7.5200   7.8669   8.2600   8.4598   8.4643   8.8615

          k = 0.7955 0.2652-0.2652 (  8045 PWs)   bands (ev):

    -4.9869  -4.7311  -4.2259  -3.5062  -3.4996  -2.7358  -2.7309  -2.5380
    -0.8266  -0.7283  -0.7189   0.2732   0.2832   1.0475   1.7510   1.7513
     2.1716   2.1732   2.4148   2.5913   2.5948   3.4706   3.4763   3.6494
     3.6533   3.6585   3.8621   3.9765   4.1300   4.4817   4.5472   5.5043
     7.5177   7.8650   8.2589   8.4581   8.4661   8.8613

          k =-0.7955 0.2652 0.2652 (  8045 PWs)   bands (ev):

    -4.9868  -4.7306  -4.2264  -3.5031  -3.5029  -2.7334  -2.7334  -2.5389
    -0.8246  -0.7234  -0.7231   0.2785   0.2787   1.0514   1.7446   1.7528
     2.1712   2.1718   2.4129   2.5910   2.5920   3.4737   3.4742   3.6503
     3.6529   3.6565   3.8621   3.9783   4.1304   4.4865   4.5464   5.5039
     7.5178   7.8652   8.2597   8.4634   8.4640   8.8623

          k =-0.7955-0.2652-0.2652 (  8045 PWs)   bands (ev):

    -4.9871  -4.7314  -4.2252  -3.5030  -3.5029  -2.7333  -2.7333  -2.5369
    -0.8288  -0.7238  -0.7238   0.2778   0.2780   1.0436   1.7495   1.7579
     2.1729   2.1736   2.4164   2.5941   2.5954   3.4724   3.4734   3.6497
     3.6516   3.6617   3.8619   3.9747   4.1295   4.4774   4.5475   5.5046
     7.5176   7.8650   8.2582   8.4603   8.4609   8.8603

     the Fermi energy is     6.3405 ev

!    total energy              =    -747.63568921 Ry
     Harris-Foulkes estimate   =    -747.63568922 Ry
     estimated scf accuracy    <          7.2E-09 Ry

     total all-electron energy =     -9281.169578 Ry

     The total energy is the sum of the following terms:

     one-electron contribution =      44.66088195 Ry
     hartree contribution      =       8.91871184 Ry
     xc contribution           =     -97.85933830 Ry
     ewald contribution        =    -133.50679770 Ry
     one-center paw contrib.   =    -569.84914693 Ry
     smearing contrib. (-TS)   =      -0.00000007 Ry

     convergence has been achieved in   8 iterations

     Forces acting on atoms (cartesian axes, Ry/au):

     atom    1 type  1   force =    -0.00006656   -0.00383409   -0.00383409
     atom    2 type  1   force =     0.00000296    0.00027423    0.00027423
     atom    3 type  1   force =     0.00014519   -0.00024725    0.00013431
     atom    4 type  1   force =    -0.00014754    0.00012197   -0.00025177
     atom    5 type  1   force =     0.00014519    0.00013431   -0.00024725
     atom    6 type  1   force =    -0.00014754   -0.00025177    0.00012197
     atom    7 type  1   force =    -0.00000272   -0.00001844   -0.00001844
     atom    8 type  1   force =     0.00000563    0.00003782    0.00003782
     atom    9 type  1   force =     0.00129233    0.00164026    0.00164026
     atom   10 type  1   force =    -0.00123610    0.00158845    0.00158845
     atom   11 type  1   force =     0.00000038    0.00034632    0.00035491
     atom   12 type  1   force =     0.00000276   -0.00007424   -0.00007184
     atom   13 type  1   force =     0.00000038    0.00035491    0.00034632
     atom   14 type  1   force =     0.00000276   -0.00007184   -0.00007424
     atom   15 type  1   force =    -0.00007065    0.00000318    0.00000318
     atom   16 type  1   force =     0.00007354   -0.00000384   -0.00000384

     Total force =     0.006641     Total SCF correction =     0.000116


     Computing stress (Cartesian axis) and pressure

          total   stress  (Ry/bohr**3)                   (kbar)     P=    0.13
   0.00000093   0.00000225   0.00000225          0.14      0.33      0.33
   0.00000225   0.00000090   0.00000004          0.33      0.13      0.01
   0.00000225   0.00000004   0.00000090          0.33      0.01      0.13


     Writing output data file pwscf.save/

     init_run     :     16.75s CPU     16.99s WALL (       1 calls)
     electrons    :    328.35s CPU    332.25s WALL (       1 calls)
     forces       :      7.17s CPU      7.20s WALL (       1 calls)
     stress       :      9.84s CPU      9.85s WALL (       1 calls)

     Called by init_run:
     wfcinit      :     16.29s CPU     16.50s WALL (       1 calls)
     potinit      :      0.18s CPU      0.19s WALL (       1 calls)
     hinit0       :      0.13s CPU      0.15s WALL (       1 calls)

     Called by electrons:
     c_bands      :    291.37s CPU    294.66s WALL (       9 calls)
     sum_band     :     34.44s CPU     35.02s WALL (       9 calls)
     v_of_rho     :      0.39s CPU      0.39s WALL (       9 calls)
     newd         :      0.38s CPU      0.39s WALL (       9 calls)
     PAW_pot      :      1.93s CPU      1.94s WALL (       9 calls)
     mix_rho      :      0.03s CPU      0.03s WALL (       9 calls)

     Called by c_bands:
     init_us_2    :      2.30s CPU      2.31s WALL (    1512 calls)
     cegterg      :    286.53s CPU    289.80s WALL (     648 calls)

     Called by sum_band:
     sum_band:bec :      0.07s CPU      0.07s WALL (     648 calls)
     addusdens    :      0.28s CPU      0.28s WALL (       9 calls)

     Called by *egterg:
     h_psi        :    178.47s CPU    181.71s WALL (    2680 calls)
     s_psi        :     37.97s CPU     38.02s WALL (    2680 calls)
     g_psi        :      0.45s CPU      0.45s WALL (    1960 calls)
     cdiaghg      :     14.47s CPU     14.50s WALL (    2536 calls)

     Called by h_psi:
     h_psi:pot    :    177.77s CPU    181.00s WALL (    2680 calls)
     h_psi:calbec :     43.06s CPU     43.28s WALL (    2680 calls)
     vloc_psi     :     96.87s CPU     99.84s WALL (    2680 calls)
     add_vuspsi   :     37.82s CPU     37.86s WALL (    2680 calls)

     General routines
     calbec       :     65.44s CPU     65.75s WALL (    3688 calls)
     fft          :      0.14s CPU      0.15s WALL (     125 calls)
     ffts         :      0.01s CPU      0.01s WALL (       9 calls)
     fftw         :     99.21s CPU    102.25s WALL (  165978 calls)

     Parallel routines
     fft_scatt_xy :     14.36s CPU     14.80s WALL (  166112 calls)
     fft_scatt_yz :     16.76s CPU     17.31s WALL (  166112 calls)

     PWSCF        :   6m 2.59s CPU   6m 7.06s WALL


   This run was terminated on:   9:47:34  23May2019            

=------------------------------------------------------------------------------=
   JOB DONE.
=------------------------------------------------------------------------------=
