calculator: qe
nqpoint: 459    
npath: 9      
segment_nqpoint:
- 51
- 51
- 51
- 51
- 51
- 51
- 51
- 51
- 51
reciprocal_lattice:
- [  -0.09681292,   0.09681292,   0.09681292 ] # a*
- [   0.09681292,  -0.09681292,   0.09681292 ] # b*
- [   0.09681292,   0.09681292,  -0.09681292 ] # c*
natom: 2      
lattice:
- [     0.000000000000000,     5.164600000000000,     5.164600000000000 ] # a
- [     5.164600000000000,     0.000000000000000,     5.164600000000000 ] # b
- [     5.164600000000000,     5.164600000000000,     0.000000000000000 ] # c
points:
- symbol: Si # 1
  coordinates: [  0.000000000000000,  0.000000000000000,  0.000000000000000 ]
  mass: 28.085500
- symbol: Si # 2
  coordinates: [  0.250000000000000,  0.250000000000000,  0.250000000000000 ]
  mass: 28.085500
supercell_matrix:
- [    4,    0,    0 ]
- [    0,    4,    0 ]
- [    0,    0,    4 ]

phonon:
- q-position: [    0.0000000,    0.0000000,    0.0000000 ]
  distance:    0.0000000
  band:
  - # 1
    frequency:   -0.0295220625
  - # 2
    frequency:   -0.0295220624
  - # 3
    frequency:   -0.0295220624
  - # 4
    frequency:  104.8373493934
  - # 5
    frequency:  104.8373493934
  - # 6
    frequency:  104.8373493934

- q-position: [    0.0100000,    0.0000000,    0.0100000 ]
  distance:    0.0019363
  band:
  - # 1
    frequency:    0.8445344536
  - # 2
    frequency:    0.8445344536
  - # 3
    frequency:    2.0106526875
  - # 4
    frequency:  104.8286773505
  - # 5
    frequency:  104.8286773505
  - # 6
    frequency:  104.8334422110

- q-position: [    0.0200000,    0.0000000,    0.0200000 ]
  distance:    0.0038725
  band:
  - # 1
    frequency:    1.6893418367
  - # 2
    frequency:    1.6893418367
  - # 3
    frequency:    4.0206379665
  - # 4
    frequency:  104.8026694886
  - # 5
    frequency:  104.8026694886
  - # 6
    frequency:  104.8216808759

- q-position: [    0.0300000,    0.0000000,    0.0300000 ]
  distance:    0.0058088
  band:
  - # 1
    frequency:    2.5329767808
  - # 2
    frequency:    2.5329767808
  - # 3
    frequency:    6.0285682867
  - # 4
    frequency:  104.7593508271
  - # 5
    frequency:  104.7593508271
  - # 6
    frequency:  104.8019463660

- q-position: [    0.0400000,    0.0000000,    0.0400000 ]
  distance:    0.0077450
  band:
  - # 1
    frequency:    3.3750709876
  - # 2
    frequency:    3.3750709876
  - # 3
    frequency:    8.0335119987
  - # 4
    frequency:  104.6987637940
  - # 5
    frequency:  104.6987637940
  - # 6
    frequency:  104.7740414451

- q-position: [    0.0500000,    0.0000000,    0.0500000 ]
  distance:    0.0096813
  band:
  - # 1
    frequency:    4.2151562548
  - # 2
    frequency:    4.2151562548
  - # 3
    frequency:   10.0345006868
  - # 4
    frequency:  104.6209693115
  - # 5
    frequency:  104.6209693115
  - # 6
    frequency:  104.7376923471

- q-position: [    0.0600000,    0.0000000,    0.0600000 ]
  distance:    0.0116176
  band:
  - # 1
    frequency:    5.0527513683
  - # 2
    frequency:    5.0527513683
  - # 3
    frequency:   12.0305673935
  - # 4
    frequency:  104.5260483012
  - # 5
    frequency:  104.5260483012
  - # 6
    frequency:  104.6925511042

- q-position: [    0.0700000,    0.0000000,    0.0700000 ]
  distance:    0.0135538
  band:
  - # 1
    frequency:    5.8873750268
  - # 2
    frequency:    5.8873750268
  - # 3
    frequency:   14.0207538059
  - # 4
    frequency:  104.4141035951
  - # 5
    frequency:  104.4141035951
  - # 6
    frequency:  104.6381984870

- q-position: [    0.0800000,    0.0000000,    0.0800000 ]
  distance:    0.0154901
  band:
  - # 1
    frequency:    6.7185492917
  - # 2
    frequency:    6.7185492917
  - # 3
    frequency:   16.0041134781
  - # 4
    frequency:  104.2852622330
  - # 5
    frequency:  104.2852622330
  - # 6
    frequency:  104.5741475196

- q-position: [    0.0900000,    0.0000000,    0.0900000 ]
  distance:    0.0174263
  band:
  - # 1
    frequency:    7.5458006841
  - # 2
    frequency:    7.5458006841
  - # 3
    frequency:   17.9797140826
  - # 4
    frequency:  104.1396781245
  - # 5
    frequency:  104.1396781245
  - # 6
    frequency:  104.4998475250

- q-position: [    0.1000000,    0.0000000,    0.1000000 ]
  distance:    0.0193626
  band:
  - # 1
    frequency:    8.3686603178
  - # 2
    frequency:    8.3686603178
  - # 3
    frequency:   19.9466392792
  - # 4
    frequency:  103.9775350505
  - # 5
    frequency:  103.9775350505
  - # 6
    frequency:  104.4146886499

- q-position: [    0.1100000,    0.0000000,    0.1100000 ]
  distance:    0.0212988
  band:
  - # 1
    frequency:    9.1866634250
  - # 2
    frequency:    9.1866634250
  - # 3
    frequency:   21.9039903508
  - # 4
    frequency:  103.7990499729
  - # 5
    frequency:  103.7990499729
  - # 6
    frequency:  104.3180068128

- q-position: [    0.1200000,    0.0000000,    0.1200000 ]
  distance:    0.0232351
  band:
  - # 1
    frequency:    9.9993483727
  - # 2
    frequency:    9.9993483727
  - # 3
    frequency:   23.8508876475
  - # 4
    frequency:  103.6044766227
  - # 5
    frequency:  103.6044766227
  - # 6
    frequency:  104.2090890168

- q-position: [    0.1300000,    0.0000000,    0.1300000 ]
  distance:    0.0251714
  band:
  - # 1
    frequency:   10.8062551952
  - # 2
    frequency:   10.8062551952
  - # 3
    frequency:   25.7864718530
  - # 4
    frequency:  103.3941093276
  - # 5
    frequency:  103.3941093276
  - # 6
    frequency:  104.0871789630

- q-position: [    0.1400000,    0.0000000,    0.1400000 ]
  distance:    0.0271076
  band:
  - # 1
    frequency:   11.6069236471
  - # 2
    frequency:   11.6069236471
  - # 3
    frequency:   27.7099050694
  - # 4
    frequency:  103.1682870423
  - # 5
    frequency:  103.1682870423
  - # 6
    frequency:  103.9514829017

- q-position: [    0.1500000,    0.0000000,    0.1500000 ]
  distance:    0.0290439
  band:
  - # 1
    frequency:   12.4008907765
  - # 2
    frequency:   12.4008907765
  - # 3
    frequency:   29.6203717223
  - # 4
    frequency:  102.9273975371
  - # 5
    frequency:  102.9273975371
  - # 6
    frequency:  103.8011756534

- q-position: [    0.1600000,    0.0000000,    0.1600000 ]
  distance:    0.0309801
  band:
  - # 1
    frequency:   13.1876880230
  - # 2
    frequency:   13.1876880230
  - # 3
    frequency:   31.5170792804
  - # 4
    frequency:  102.6718817009
  - # 5
    frequency:  102.6718817009
  - # 6
    frequency:  103.6354067374

- q-position: [    0.1700000,    0.0000000,    0.1700000 ]
  distance:    0.0329164
  band:
  - # 1
    frequency:   13.9668378527
  - # 2
    frequency:   13.9668378527
  - # 3
    frequency:   33.3992587912
  - # 4
    frequency:  102.4022379081
  - # 5
    frequency:  102.4022379081
  - # 6
    frequency:  103.4533065410

- q-position: [    0.1800000,    0.0000000,    0.1800000 ]
  distance:    0.0348527
  band:
  - # 1
    frequency:   14.7378499503
  - # 2
    frequency:   14.7378499503
  - # 3
    frequency:   35.2661652314
  - # 4
    frequency:  102.1190263977
  - # 5
    frequency:  102.1190263977
  - # 6
    frequency:  103.2539924690

- q-position: [    0.1900000,    0.0000000,    0.1900000 ]
  distance:    0.0367889
  band:
  - # 1
    frequency:   15.5002170016
  - # 2
    frequency:   15.5002170016
  - # 3
    frequency:   37.1170776758
  - # 4
    frequency:  101.8228736060
  - # 5
    frequency:  101.8228736060
  - # 6
    frequency:  103.0365750134

- q-position: [    0.2000000,    0.0000000,    0.2000000 ]
  distance:    0.0387252
  band:
  - # 1
    frequency:   16.2534101094
  - # 2
    frequency:   16.2534101094
  - # 3
    frequency:   38.9512992889
  - # 4
    frequency:  101.5144763934
  - # 5
    frequency:  101.5144763934
  - # 6
    frequency:  102.8001636869

- q-position: [    0.2100000,    0.0000000,    0.2100000 ]
  distance:    0.0406614
  band:
  - # 1
    frequency:   16.9968739022
  - # 2
    frequency:   16.9968739022
  - # 3
    frequency:   40.7681571463
  - # 4
    frequency:  101.1946060957
  - # 5
    frequency:  101.1946060957
  - # 6
    frequency:  102.5438727691

- q-position: [    0.2200000,    0.0000000,    0.2200000 ]
  distance:    0.0425977
  band:
  - # 1
    frequency:   17.7300214055
  - # 2
    frequency:   17.7300214055
  - # 3
    frequency:   42.5670018947
  - # 4
    frequency:  100.8641123293
  - # 5
    frequency:  100.8641123293
  - # 6
    frequency:  102.2668268167

- q-position: [    0.2300000,    0.0000000,    0.2300000 ]
  distance:    0.0445339
  band:
  - # 1
    frequency:   18.4522287644
  - # 2
    frequency:   18.4522287644
  - # 3
    frequency:   44.3472072612
  - # 4
    frequency:  100.5239264677
  - # 5
    frequency:  100.5239264677
  - # 6
    frequency:  101.9681658966

- q-position: [    0.2400000,    0.0000000,    0.2400000 ]
  distance:    0.0464702
  band:
  - # 1
    frequency:   19.1628299189
  - # 2
    frequency:   19.1628299189
  - # 3
    frequency:   46.1081694265
  - # 4
    frequency:  100.1750647027
  - # 5
    frequency:  100.1750647027
  - # 6
    frequency:  101.6470505031

- q-position: [    0.2500000,    0.0000000,    0.2500000 ]
  distance:    0.0484065
  band:
  - # 1
    frequency:   19.8611113517
  - # 2
    frequency:   19.8611113517
  - # 3
    frequency:   47.8493062745
  - # 4
    frequency:   99.8186305924
  - # 5
    frequency:   99.8186305924
  - # 6
    frequency:  101.3026661278

- q-position: [    0.2600000,    0.0000000,    0.2600000 ]
  distance:    0.0503427
  band:
  - # 1
    frequency:   20.5463070452
  - # 2
    frequency:   20.5463070452
  - # 3
    frequency:   49.5700565367
  - # 4
    frequency:   99.4558169878
  - # 5
    frequency:   99.4558169878
  - # 6
    frequency:  100.9342274545

- q-position: [    0.2700000,    0.0000000,    0.2700000 ]
  distance:    0.0522790
  band:
  - # 1
    frequency:   21.2175938002
  - # 2
    frequency:   21.2175938002
  - # 3
    frequency:   51.2698788492
  - # 4
    frequency:   99.0879072202
  - # 5
    frequency:   99.0879072202
  - # 6
    frequency:  100.5409821593

- q-position: [    0.2800000,    0.0000000,    0.2800000 ]
  distance:    0.0542152
  band:
  - # 1
    frequency:   21.8740870874
  - # 2
    frequency:   21.8740870874
  - # 3
    frequency:   52.9482507406
  - # 4
    frequency:   98.7162754198
  - # 5
    frequency:   98.7162754198
  - # 6
    frequency:  100.1222142978

- q-position: [    0.2900000,    0.0000000,    0.2900000 ]
  distance:    0.0561515
  band:
  - # 1
    frequency:   22.5148376174
  - # 2
    frequency:   22.5148376174
  - # 3
    frequency:   54.6046675725
  - # 4
    frequency:   98.3423858225
  - # 5
    frequency:   98.3423858225
  - # 6
    frequency:   99.6772472702

- q-position: [    0.3000000,    0.0000000,    0.3000000 ]
  distance:    0.0580878
  band:
  - # 1
    frequency:   23.1388288302
  - # 2
    frequency:   23.1388288302
  - # 3
    frequency:   56.2386414531
  - # 4
    frequency:   97.9677909135
  - # 5
    frequency:   97.9677909135
  - # 6
    frequency:   99.2054463577

- q-position: [    0.3100000,    0.0000000,    0.3100000 ]
  distance:    0.0600240
  band:
  - # 1
    frequency:   23.7449755168
  - # 2
    frequency:   23.7449755168
  - # 3
    frequency:   57.8497001458
  - # 4
    frequency:   97.5941282453
  - # 5
    frequency:   97.5941282453
  - # 6
    frequency:   98.7062208286

- q-position: [    0.3200000,    0.0000000,    0.3200000 ]
  distance:    0.0619603
  band:
  - # 1
    frequency:   24.3321237931
  - # 2
    frequency:   24.3321237931
  - # 3
    frequency:   59.4373859950
  - # 4
    frequency:   97.2231157609
  - # 5
    frequency:   97.2231157609
  - # 6
    frequency:   98.1790256187

- q-position: [    0.3300000,    0.0000000,    0.3300000 ]
  distance:    0.0638965
  band:
  - # 1
    frequency:   24.8990526492
  - # 2
    frequency:   24.8990526492
  - # 3
    frequency:   61.0012548907
  - # 4
    frequency:   96.8565454530
  - # 5
    frequency:   96.8565454530
  - # 6
    frequency:   97.6233625929

- q-position: [    0.3400000,    0.0000000,    0.3400000 ]
  distance:    0.0658328
  band:
  - # 1
    frequency:   25.4444772898
  - # 2
    frequency:   25.4444772898
  - # 3
    frequency:   62.5408752940
  - # 4
    frequency:   96.4962751920
  - # 5
    frequency:   96.4962751920
  - # 6
    frequency:   97.0387813995

- q-position: [    0.3500000,    0.0000000,    0.3500000 ]
  distance:    0.0677690
  band:
  - # 1
    frequency:   25.9670544715
  - # 2
    frequency:   25.9670544715
  - # 3
    frequency:   64.0558273441
  - # 4
    frequency:   96.1442185722
  - # 5
    frequency:   96.1442185722
  - # 6
    frequency:   96.4248799326

- q-position: [    0.3600000,    0.0000000,    0.3600000 ]
  distance:    0.0697053
  band:
  - # 1
    frequency:   26.4653900084
  - # 2
    frequency:   26.4653900084
  - # 3
    frequency:   65.5457020679
  - # 4
    frequency:   95.7813044213
  - # 5
    frequency:   95.8023326459
  - # 6
    frequency:   95.8023326459

- q-position: [    0.3700000,    0.0000000,    0.3700000 ]
  distance:    0.0716416
  band:
  - # 1
    frequency:   26.9380485842
  - # 2
    frequency:   26.9380485842
  - # 3
    frequency:   67.0101007092
  - # 4
    frequency:   95.1077491669
  - # 5
    frequency:   95.4726034582
  - # 6
    frequency:   95.4726034582

- q-position: [    0.3800000,    0.0000000,    0.3800000 ]
  distance:    0.0735778
  band:
  - # 1
    frequency:   27.3835659452
  - # 2
    frequency:   27.3835659452
  - # 3
    frequency:   68.4486341973
  - # 4
    frequency:   94.4039559511
  - # 5
    frequency:   95.1570293452
  - # 6
    frequency:   95.1570293452

- q-position: [    0.3900000,    0.0000000,    0.3900000 ]
  distance:    0.0755141
  band:
  - # 1
    frequency:   27.8004634789
  - # 2
    frequency:   27.8004634789
  - # 3
    frequency:   69.8609227691
  - # 4
    frequency:   93.6697131428
  - # 5
    frequency:   94.8576020313
  - # 6
    frequency:   94.8576020313

- q-position: [    0.4000000,    0.0000000,    0.4000000 ]
  distance:    0.0774503
  band:
  - # 1
    frequency:   28.1872650870
  - # 2
    frequency:   28.1872650870
  - # 3
    frequency:   71.2465957591
  - # 4
    frequency:   92.9048545305
  - # 5
    frequency:   94.5762856484
  - # 6
    frequency:   94.5762856484

- q-position: [    0.4100000,    0.0000000,    0.4100000 ]
  distance:    0.0793866
  band:
  - # 1
    frequency:   28.5425161558
  - # 2
    frequency:   28.5425161558
  - # 3
    frequency:   72.6052915684
  - # 4
    frequency:   92.1092579100
  - # 5
    frequency:   94.3149939045
  - # 6
    frequency:   94.3149939045

- q-position: [    0.4200000,    0.0000000,    0.4200000 ]
  distance:    0.0813229
  band:
  - # 1
    frequency:   28.8648043058
  - # 2
    frequency:   28.8648043058
  - # 3
    frequency:   73.9366578229
  - # 4
    frequency:   91.2828434581
  - # 5
    frequency:   94.0755657444
  - # 6
    frequency:   94.0755657444

- q-position: [    0.4300000,    0.0000000,    0.4300000 ]
  distance:    0.0832591
  band:
  - # 1
    frequency:   29.1527814763
  - # 2
    frequency:   29.1527814763
  - # 3
    frequency:   75.2403517262
  - # 4
    frequency:   90.4255719235
  - # 5
    frequency:   93.8597399700
  - # 6
    frequency:   93.8597399700

- q-position: [    0.4400000,    0.0000000,    0.4400000 ]
  distance:    0.0851954
  band:
  - # 1
    frequency:   29.4051867743
  - # 2
    frequency:   29.4051867743
  - # 3
    frequency:   76.5160406115
  - # 4
    frequency:   89.5374426676
  - # 5
    frequency:   93.6691294056
  - # 6
    frequency:   93.6691294056

- q-position: [    0.4500000,    0.0000000,    0.4500000 ]
  distance:    0.0871316
  band:
  - # 1
    frequency:   29.6208694058
  - # 2
    frequency:   29.6208694058
  - # 3
    frequency:   77.7634026948
  - # 4
    frequency:   88.6184915859
  - # 5
    frequency:   93.5051953072
  - # 6
    frequency:   93.5051953072

- q-position: [    0.4600000,    0.0000000,    0.4600000 ]
  distance:    0.0890679
  band:
  - # 1
    frequency:   29.7988109185
  - # 2
    frequency:   29.7988109185
  - # 3
    frequency:   78.9821280255
  - # 4
    frequency:   87.6687889438
  - # 5
    frequency:   93.3692227964
  - # 6
    frequency:   93.3692227964

- q-position: [    0.4700000,    0.0000000,    0.4700000 ]
  distance:    0.0910041
  band:
  - # 1
    frequency:   29.9381459318
  - # 2
    frequency:   29.9381459318
  - # 3
    frequency:   80.1719196322
  - # 4
    frequency:   86.6884371569
  - # 5
    frequency:   93.2622981533
  - # 6
    frequency:   93.2622981533

- q-position: [    0.4800000,    0.0000000,    0.4800000 ]
  distance:    0.0929404
  band:
  - # 1
    frequency:   30.0381805219
  - # 2
    frequency:   30.0381805219
  - # 3
    frequency:   81.3324948551
  - # 4
    frequency:   85.6775685471
  - # 5
    frequency:   93.1852888057
  - # 6
    frequency:   93.1852888057

- q-position: [    0.4900000,    0.0000000,    0.4900000 ]
  distance:    0.0948767
  band:
  - # 1
    frequency:   30.0984074770
  - # 2
    frequency:   30.0984074770
  - # 3
    frequency:   82.4635868542
  - # 4
    frequency:   84.6363431044
  - # 5
    frequency:   93.1388268054
  - # 6
    frequency:   93.1388268054

- q-position: [    0.5000000,    0.0000000,    0.5000000 ]
  distance:    0.0968129
  band:
  - # 1
    frequency:   30.1185177357
  - # 2
    frequency:   30.1185177357
  - # 3
    frequency:   83.5649462824
  - # 4
    frequency:   83.5649462824
  - # 5
    frequency:   93.1232964816
  - # 6
    frequency:   93.1232964816

- q-position: [    0.5000000,    0.0000000,    0.5000000 ]
  distance:    0.0968129
  band:
  - # 1
    frequency:   30.1185177357
  - # 2
    frequency:   30.1185177357
  - # 3
    frequency:   83.5649462824
  - # 4
    frequency:   83.5649462824
  - # 5
    frequency:   93.1232964816
  - # 6
    frequency:   93.1232964816

- q-position: [    0.5050000,    0.0050000,    0.5000000 ]
  distance:    0.0977810
  band:
  - # 1
    frequency:   30.1283336341
  - # 2
    frequency:   30.1283336341
  - # 3
    frequency:   83.5578338672
  - # 4
    frequency:   83.5578338672
  - # 5
    frequency:   93.1270853518
  - # 6
    frequency:   93.1270853518

- q-position: [    0.5100000,    0.0100000,    0.5000000 ]
  distance:    0.0987492
  band:
  - # 1
    frequency:   30.1577361027
  - # 2
    frequency:   30.1577361027
  - # 3
    frequency:   83.5365478447
  - # 4
    frequency:   83.5365478447
  - # 5
    frequency:   93.1384079769
  - # 6
    frequency:   93.1384079769

- q-position: [    0.5150000,    0.0150000,    0.5000000 ]
  distance:    0.0997173
  band:
  - # 1
    frequency:   30.2065898891
  - # 2
    frequency:   30.2065898891
  - # 3
    frequency:   83.5012403455
  - # 4
    frequency:   83.5012403455
  - # 5
    frequency:   93.1571339628
  - # 6
    frequency:   93.1571339628

- q-position: [    0.5200000,    0.0200000,    0.5000000 ]
  distance:    0.1006854
  band:
  - # 1
    frequency:   30.2746709835
  - # 2
    frequency:   30.2746709835
  - # 3
    frequency:   83.4521599194
  - # 4
    frequency:   83.4521599194
  - # 5
    frequency:   93.1830510667
  - # 6
    frequency:   93.1830510667

- q-position: [    0.5250000,    0.0250000,    0.5000000 ]
  distance:    0.1016536
  band:
  - # 1
    frequency:   30.3616686926
  - # 2
    frequency:   30.3616686926
  - # 3
    frequency:   83.3896444641
  - # 4
    frequency:   83.3896444641
  - # 5
    frequency:   93.2158723891
  - # 6
    frequency:   93.2158723891

- q-position: [    0.5300000,    0.0300000,    0.5000000 ]
  distance:    0.1026217
  band:
  - # 1
    frequency:   30.4671884617
  - # 2
    frequency:   30.4671884617
  - # 3
    frequency:   83.3141121194
  - # 4
    frequency:   83.3141121194
  - # 5
    frequency:   93.2552456450
  - # 6
    frequency:   93.2552456450

- q-position: [    0.5350000,    0.0350000,    0.5000000 ]
  distance:    0.1035898
  band:
  - # 1
    frequency:   30.5907553664
  - # 2
    frequency:   30.5907553664
  - # 3
    frequency:   83.2260507919
  - # 4
    frequency:   83.2260507919
  - # 5
    frequency:   93.3007638529
  - # 6
    frequency:   93.3007638529

- q-position: [    0.5400000,    0.0400000,    0.5000000 ]
  distance:    0.1045580
  band:
  - # 1
    frequency:   30.7318181829
  - # 2
    frequency:   30.7318181829
  - # 3
    frequency:   83.1260070035
  - # 4
    frequency:   83.1260070035
  - # 5
    frequency:   93.3519767427
  - # 6
    frequency:   93.3519767427

- q-position: [    0.5450000,    0.0450000,    0.5000000 ]
  distance:    0.1055261
  band:
  - # 1
    frequency:   30.8897539331
  - # 2
    frequency:   30.8897539331
  - # 3
    frequency:   83.0145747171
  - # 4
    frequency:   83.0145747171
  - # 5
    frequency:   93.4084022316
  - # 6
    frequency:   93.4084022316

- q-position: [    0.5500000,    0.0500000,    0.5000000 ]
  distance:    0.1064942
  band:
  - # 1
    frequency:   31.0638727928
  - # 2
    frequency:   31.0638727928
  - # 3
    frequency:   82.8923846932
  - # 4
    frequency:   82.8923846932
  - # 5
    frequency:   93.4695374081
  - # 6
    frequency:   93.4695374081

- q-position: [    0.5550000,    0.0550000,    0.5000000 ]
  distance:    0.1074623
  band:
  - # 1
    frequency:   31.2534232548
  - # 2
    frequency:   31.2534232548
  - # 3
    frequency:   82.7600948022
  - # 4
    frequency:   82.7600948022
  - # 5
    frequency:   93.5348686004
  - # 6
    frequency:   93.5348686004

- q-position: [    0.5600000,    0.0600000,    0.5000000 ]
  distance:    0.1084305
  band:
  - # 1
    frequency:   31.4575974335
  - # 2
    frequency:   31.4575974335
  - # 3
    frequency:   82.6183815738
  - # 4
    frequency:   82.6183815738
  - # 5
    frequency:   93.6038802420
  - # 6
    frequency:   93.6038802420

- q-position: [    0.5650000,    0.0650000,    0.5000000 ]
  distance:    0.1093986
  band:
  - # 1
    frequency:   31.6755364113
  - # 2
    frequency:   31.6755364113
  - # 3
    frequency:   82.4679331319
  - # 4
    frequency:   82.4679331319
  - # 5
    frequency:   93.6760623826
  - # 6
    frequency:   93.6760623826

- q-position: [    0.5700000,    0.0700000,    0.5000000 ]
  distance:    0.1103667
  band:
  - # 1
    frequency:   31.9063355307
  - # 2
    frequency:   31.9063355307
  - # 3
    frequency:   82.3094435483
  - # 4
    frequency:   82.3094435483
  - # 5
    frequency:   93.7509168076
  - # 6
    frequency:   93.7509168076

- q-position: [    0.5750000,    0.0750000,    0.5000000 ]
  distance:    0.1113349
  band:
  - # 1
    frequency:   32.1490495525
  - # 2
    frequency:   32.1490495525
  - # 3
    frequency:   82.1436085598
  - # 4
    frequency:   82.1436085598
  - # 5
    frequency:   93.8279618130
  - # 6
    frequency:   93.8279618130

- q-position: [    0.5800000,    0.0800000,    0.5000000 ]
  distance:    0.1123030
  band:
  - # 1
    frequency:   32.4026976104
  - # 2
    frequency:   32.4026976104
  - # 3
    frequency:   81.9711225328
  - # 4
    frequency:   81.9711225328
  - # 5
    frequency:   93.9067357476
  - # 6
    frequency:   93.9067357476

- q-position: [    0.5850000,    0.0850000,    0.5000000 ]
  distance:    0.1132711
  band:
  - # 1
    frequency:   32.6662679089
  - # 2
    frequency:   32.6662679089
  - # 3
    frequency:   81.7926765192
  - # 4
    frequency:   81.7926765192
  - # 5
    frequency:   93.9867994677
  - # 6
    frequency:   93.9867994677

- q-position: [    0.5900000,    0.0900000,    0.5000000 ]
  distance:    0.1142392
  band:
  - # 1
    frequency:   32.9387221266
  - # 2
    frequency:   32.9387221266
  - # 3
    frequency:   81.6089572334
  - # 4
    frequency:   81.6089572334
  - # 5
    frequency:   94.0677378654
  - # 6
    frequency:   94.0677378654

- q-position: [    0.5950000,    0.0950000,    0.5000000 ]
  distance:    0.1152074
  band:
  - # 1
    frequency:   33.2189995010
  - # 2
    frequency:   33.2189995010
  - # 3
    frequency:   81.4206467744
  - # 4
    frequency:   81.4206467744
  - # 5
    frequency:   94.1491606357
  - # 6
    frequency:   94.1491606357

- q-position: [    0.6000000,    0.1000000,    0.5000000 ]
  distance:    0.1161755
  band:
  - # 1
    frequency:   33.5060205832
  - # 2
    frequency:   33.5060205832
  - # 3
    frequency:   81.2284229262
  - # 4
    frequency:   81.2284229262
  - # 5
    frequency:   94.2307024341
  - # 6
    frequency:   94.2307024341

- q-position: [    0.6050000,    0.1050000,    0.5000000 ]
  distance:    0.1171436
  band:
  - # 1
    frequency:   33.7986906694
  - # 2
    frequency:   33.7986906694
  - # 3
    frequency:   81.0329598812
  - # 4
    frequency:   81.0329598812
  - # 5
    frequency:   94.3120225642
  - # 6
    frequency:   94.3120225642

- q-position: [    0.6100000,    0.1100000,    0.5000000 ]
  distance:    0.1181118
  band:
  - # 1
    frequency:   34.0959029205
  - # 2
    frequency:   34.0959029205
  - # 3
    frequency:   80.8349292499
  - # 4
    frequency:   80.8349292499
  - # 5
    frequency:   94.3928043147
  - # 6
    frequency:   94.3928043147

- q-position: [    0.6150000,    0.1150000,    0.5000000 ]
  distance:    0.1190799
  band:
  - # 1
    frequency:   34.3965411992
  - # 2
    frequency:   34.3965411992
  - # 3
    frequency:   80.6350012334
  - # 4
    frequency:   80.6350012334
  - # 5
    frequency:   94.4727540480
  - # 6
    frequency:   94.4727540480

- q-position: [    0.6200000,    0.1200000,    0.5000000 ]
  distance:    0.1200480
  band:
  - # 1
    frequency:   34.6994826573
  - # 2
    frequency:   34.6994826573
  - # 3
    frequency:   80.4338458533
  - # 4
    frequency:   80.4338458533
  - # 5
    frequency:   94.5516001209
  - # 6
    frequency:   94.5516001209

- q-position: [    0.6250000,    0.1250000,    0.5000000 ]
  distance:    0.1210161
  band:
  - # 1
    frequency:   35.0036001176
  - # 2
    frequency:   35.0036001176
  - # 3
    frequency:   80.2321341470
  - # 4
    frequency:   80.2321341470
  - # 5
    frequency:   94.6290917058
  - # 6
    frequency:   94.6290917058

- q-position: [    0.6300000,    0.1300000,    0.5000000 ]
  distance:    0.1219843
  band:
  - # 1
    frequency:   35.3077643004
  - # 2
    frequency:   35.3077643004
  - # 3
    frequency:   80.0305392468
  - # 4
    frequency:   80.0305392468
  - # 5
    frequency:   94.7049975618
  - # 6
    frequency:   94.7049975618

- q-position: [    0.6350000,    0.1350000,    0.5000000 ]
  distance:    0.1229524
  band:
  - # 1
    frequency:   35.6108459474
  - # 2
    frequency:   35.6108459474
  - # 3
    frequency:   79.8297372732
  - # 4
    frequency:   79.8297372732
  - # 5
    frequency:   94.7791047967
  - # 6
    frequency:   94.7791047967

- q-position: [    0.6400000,    0.1400000,    0.5000000 ]
  distance:    0.1239205
  band:
  - # 1
    frequency:   35.9117179053
  - # 2
    frequency:   35.9117179053
  - # 3
    frequency:   79.6304079778
  - # 4
    frequency:   79.6304079778
  - # 5
    frequency:   94.8512176477
  - # 6
    frequency:   94.8512176477

- q-position: [    0.6450000,    0.1450000,    0.5000000 ]
  distance:    0.1248887
  band:
  - # 1
    frequency:   36.2092572268
  - # 2
    frequency:   36.2092572268
  - # 3
    frequency:   79.4332350802
  - # 4
    frequency:   79.4332350802
  - # 5
    frequency:   94.9211563016
  - # 6
    frequency:   94.9211563016

- q-position: [    0.6500000,    0.1500000,    0.5000000 ]
  distance:    0.1258568
  band:
  - # 1
    frequency:   36.5023473544
  - # 2
    frequency:   36.5023473544
  - # 3
    frequency:   79.2389062476
  - # 4
    frequency:   79.2389062476
  - # 5
    frequency:   94.9887557701
  - # 6
    frequency:   94.9887557701

- q-position: [    0.6550000,    0.1550000,    0.5000000 ]
  distance:    0.1268249
  band:
  - # 1
    frequency:   36.7898804476
  - # 2
    frequency:   36.7898804476
  - # 3
    frequency:   79.0481126696
  - # 4
    frequency:   79.0481126696
  - # 5
    frequency:   95.0538648277
  - # 6
    frequency:   95.0538648277

- q-position: [    0.6600000,    0.1600000,    0.5000000 ]
  distance:    0.1277931
  band:
  - # 1
    frequency:   37.0707599140
  - # 2
    frequency:   37.0707599140
  - # 3
    frequency:   78.8615481884
  - # 4
    frequency:   78.8615481884
  - # 5
    frequency:   95.1163450182
  - # 6
    frequency:   95.1163450182

- q-position: [    0.6650000,    0.1650000,    0.5000000 ]
  distance:    0.1287612
  band:
  - # 1
    frequency:   37.3439032003
  - # 2
    frequency:   37.3439032003
  - # 3
    frequency:   78.6799079469
  - # 4
    frequency:   78.6799079469
  - # 5
    frequency:   95.1760697332
  - # 6
    frequency:   95.1760697332

- q-position: [    0.6700000,    0.1700000,    0.5000000 ]
  distance:    0.1297293
  band:
  - # 1
    frequency:   37.6082448925
  - # 2
    frequency:   37.6082448925
  - # 3
    frequency:   78.5038865274
  - # 4
    frequency:   78.5038865274
  - # 5
    frequency:   95.2329233604
  - # 6
    frequency:   95.2329233604

- q-position: [    0.6750000,    0.1750000,    0.5000000 ]
  distance:    0.1306974
  band:
  - # 1
    frequency:   37.8627401669
  - # 2
    frequency:   37.8627401669
  - # 3
    frequency:   78.3341755591
  - # 4
    frequency:   78.3341755591
  - # 5
    frequency:   95.2868005039
  - # 6
    frequency:   95.2868005039

- q-position: [    0.6800000,    0.1800000,    0.5000000 ]
  distance:    0.1316656
  band:
  - # 1
    frequency:   38.1063686220
  - # 2
    frequency:   38.1063686220
  - # 3
    frequency:   78.1714607856
  - # 4
    frequency:   78.1714607856
  - # 5
    frequency:   95.3376052703
  - # 6
    frequency:   95.3376052703

- q-position: [    0.6850000,    0.1850000,    0.5000000 ]
  distance:    0.1326337
  band:
  - # 1
    frequency:   38.3381385069
  - # 2
    frequency:   38.3381385069
  - # 3
    frequency:   78.0164185938
  - # 4
    frequency:   78.0164185938
  - # 5
    frequency:   95.3852506218
  - # 6
    frequency:   95.3852506218
