64   
1    

1    
  0.0200000000000000   0.0000000000000000   0.0000000000000000
  -0.0053334397    0.0000000000    0.0000000000
   0.0000076303    0.0000000000    0.0000000000
   0.0000204103    0.0000000000    0.0000000000
  -0.0000015997    0.0000000000    0.0000000000
   0.0000204103    0.0000000000    0.0000000000
  -0.0000015997    0.0000000000    0.0000000000
  -0.0001589697    0.0000000000    0.0000000000
   0.0000080603    0.0000000000    0.0000000000
  -0.0001727197    0.0000372100    0.0000372100
  -0.0000019197    0.0000024400    0.0000024400
  -0.0001748397    0.0000384800   -0.0000384800
   0.0000008703    0.0000033500   -0.0000033500
  -0.0001748397   -0.0000384800    0.0000384800
   0.0000008703   -0.0000033500    0.0000033500
  -0.0001727197   -0.0000372100   -0.0000372100
  -0.0000019197   -0.0000024400   -0.0000024400
   0.0000783403   -0.0000372100    0.0000758700
   0.0000795703   -0.0000404700   -0.0000775600
   0.0000145803   -0.0000030800   -0.0000261200
   0.0000141803   -0.0000007100    0.0000243400
   0.0000783403    0.0000372100   -0.0000758700
   0.0000795703    0.0000404700    0.0000775600
   0.0000145803    0.0000030800    0.0000261200
   0.0000141803    0.0000007100   -0.0000243400
   0.0000783403    0.0000758700   -0.0000372100
   0.0000795703   -0.0000775600   -0.0000404700
   0.0000783403   -0.0000758700    0.0000372100
   0.0000795703    0.0000775600    0.0000404700
   0.0000145803   -0.0000261200   -0.0000030800
   0.0000141803    0.0000243400   -0.0000007100
   0.0000145803    0.0000261200    0.0000030800
   0.0000141803   -0.0000243400    0.0000007100
  -0.0000067597    0.0000094400    0.0000094400
   0.0000880003    0.0000095900    0.0000095900
   0.0000093803    0.0000094600    0.0000077500
  -0.0000204297    0.0000164500    0.0000109800
   0.0000093803    0.0000077500    0.0000094600
  -0.0000204297    0.0000109800    0.0000164500
  -0.0000033197    0.0000127000    0.0000127000
   0.0012974203    0.0008806200    0.0008806200
  -0.0000033197   -0.0000127000   -0.0000127000
   0.0012974203   -0.0008806200   -0.0008806200
   0.0000093803   -0.0000077500   -0.0000094600
  -0.0000204297   -0.0000109800   -0.0000164500
   0.0000093803   -0.0000094600   -0.0000077500
  -0.0000204297   -0.0000164500   -0.0000109800
  -0.0000067597   -0.0000094400   -0.0000094400
   0.0000880003   -0.0000095900   -0.0000095900
  -0.0000186497   -0.0000131500    0.0000163600
   0.0000085303   -0.0000070100    0.0000075600
   0.0012823203   -0.0008524800    0.0008524800
  -0.0000016697   -0.0000130400    0.0000130400
   0.0000867203   -0.0000092300    0.0000092300
  -0.0000055597   -0.0000116800    0.0000116800
  -0.0000186497   -0.0000163600    0.0000131500
   0.0000085303   -0.0000075600    0.0000070100
  -0.0000186497    0.0000163600   -0.0000131500
   0.0000085303    0.0000075600   -0.0000070100
   0.0000867203    0.0000092300   -0.0000092300
  -0.0000055597    0.0000116800   -0.0000116800
   0.0012823203    0.0008524800   -0.0008524800
  -0.0000016697    0.0000130400   -0.0000130400
  -0.0000186497    0.0000131500   -0.0000163600
   0.0000085303    0.0000070100   -0.0000075600